
     Program BANDS v.7.1 starts on 22Sep2023 at 16:51:30 

     This program is part of the open-source Quantum ESPRESSO suite
     for quantum simulation of materials; please cite
         "P. Giannozzi et al., J. Phys.:Condens. Matter 21 395502 (2009);
         "P. Giannozzi et al., J. Phys.:Condens. Matter 29 465901 (2017);
         "P. Giannozzi et al., J. Chem. Phys. 152 154105 (2020);
          URL http://www.quantum-espresso.org", 
     in publications or presentations arising from this work. More details at
     http://www.quantum-espresso.org/quote

     Parallel version (MPI & OpenMP), running on      10 processor cores
     Number of MPI processes:                10
     Threads/MPI process:                     1

     MPI processes distributed on     1 nodes
     R & G space division:  proc/nbgrp/npool/nimage =      10
     11671 MiB available memory on the printing compute node when the environment starts


     Reading xml data from directory:

     ./work/pwscf.save/
     file Al.pbe-n-kjpaw_psl.1.0.0.UPF: wavefunction(s)  3S 3P renormalized
     file V.pbe-spn-kjpaw_psl.1.0.0.UPF: wavefunction(s)  3P 3D renormalized
     file Fe.pbe-spn-kjpaw_psl.1.0.0.UPF: wavefunction(s)  3P 3D renormalized

     IMPORTANT: XC functional enforced from input :
     Exchange-correlation= PBE
                           (   1   4   3   4   0   0   0)
     Any further DFT definition will be discarded
     Please, verify this is what you really want


     Parallelization info
     --------------------
     sticks:   dense  smooth     PW     G-vecs:    dense   smooth      PW
     Min         594     261     74                34360    10129    1540
     Max         595     262     75                34363    10132    1543
     Sum        5949    2617    749               343611   101313   15419

     Using Slab Decomposition


     Check: negative core charge=   -0.000001
     Reading collected, re-writing distributed wavefunctions
     high-symmetry point:  0.5000 0.2500 0.7500   x coordinate   0.0000
     high-symmetry point:  0.0000 0.5000 0.0000   x coordinate   0.9354
     high-symmetry point:  0.0000 0.0000 0.0000   x coordinate   1.4354
     high-symmetry point:  0.0000 0.5000 0.5000   x coordinate   2.1425
     high-symmetry point:  0.7500 0.5000 0.2500   x coordinate   2.9331
     high-symmetry point:  0.7500 0.3750 0.3750   x coordinate   3.1099

     Plottable bands (eV) written to file bands.out.gnu
     Bands written to file bands.out

 **************************************************************************

                    xk=(   0.50000,   0.25000,   0.75000  )

     point group C_2v (mm2) 
     there are  4 classes
     the character table:

       E     C2    s_v   s_v' 
A_1    1.00  1.00  1.00  1.00
A_2    1.00  1.00 -1.00 -1.00
B_1    1.00 -1.00  1.00 -1.00
B_2    1.00 -1.00 -1.00  1.00

     the symmetry operations in each class and the name of the first element:

     E        1
                                                                 
     C2       2
                                                                 
     s_v      3
                                                                 
     s_v'     4
                                                                 

     Band symmetry, C_2v (mm2)  point group:

     e(  1 -  2) =    -69.82169  eV     2   --> A_1  D_1  S_1  
     e(  1 -  2) =    -69.82169  eV     2   --> B_2  D_4  S_4  
     e(  3 -  6) =    -69.81806  eV     4   --> A_1  D_1  S_1  
     e(  3 -  6) =    -69.81806  eV     4   --> A_2  D_2  S_2  
     e(  3 -  6) =    -69.81806  eV     4   --> B_1  D_3  S_3  
     e(  3 -  6) =    -69.81806  eV     4   --> B_2  D_4  S_4  
     e(  7 -  8) =    -69.81433  eV     2   --> A_1  D_1  S_1  
     e(  7 -  8) =    -69.81433  eV     2   --> B_2  D_4  S_4  
     e(  9 -  9) =    -47.89024  eV     1   --> B_1  D_3  S_3  
     e( 10 - 10) =    -47.89006  eV     1   --> B_2  D_4  S_4  
     e( 11 - 11) =    -47.88987  eV     1   --> A_1  D_1  S_1  
     e( 12 - 12) =    -47.83147  eV     1   --> B_2  D_4  S_4  
     e( 13 - 13) =    -35.94079  eV     1   --> A_2  D_2  S_2  
     e( 14 - 14) =    -35.94062  eV     1   --> A_1  D_1  S_1  
     e( 15 - 15) =    -35.93668  eV     1   --> B_1  D_3  S_3  
     e( 16 - 16) =    -35.93650  eV     1   --> B_2  D_4  S_4  
     e( 17 - 18) =    -35.93485  eV     2   --> A_2  D_2  S_2  
     e( 17 - 18) =    -35.93485  eV     2   --> B_1  D_3  S_3  
     e( 19 - 20) =    -35.93441  eV     2   --> A_1  D_1  S_1  
     e( 19 - 20) =    -35.93441  eV     2   --> B_2  D_4  S_4  
     e( 21 - 22) =    -35.91688  eV     2   --> A_1  D_1  S_1  
     e( 21 - 22) =    -35.91688  eV     2   --> B_2  D_4  S_4  
     e( 23 - 24) =    -35.91442  eV     2   --> A_1  D_1  S_1  
     e( 23 - 24) =    -35.91442  eV     2   --> A_2  D_2  S_2  
     e( 25 - 26) =    -35.91315  eV     2   --> B_1  D_3  S_3  
     e( 25 - 26) =    -35.91315  eV     2   --> B_2  D_4  S_4  
     e( 27 - 28) =    -35.90855  eV     2   --> A_1  D_1  S_1  
     e( 27 - 28) =    -35.90855  eV     2   --> B_2  D_4  S_4  
     e( 29 - 30) =    -35.89220  eV     2   --> A_2  D_2  S_2  
     e( 29 - 30) =    -35.89220  eV     2   --> B_1  D_3  S_3  
     e( 31 - 32) =    -35.89192  eV     2   --> A_1  D_1  S_1  
     e( 31 - 32) =    -35.89192  eV     2   --> B_2  D_4  S_4  
     e( 33 - 33) =    -35.88825  eV     1   --> B_1  D_3  S_3  
     e( 34 - 34) =    -35.88807  eV     1   --> B_2  D_4  S_4  
     e( 35 - 35) =    -35.88788  eV     1   --> A_2  D_2  S_2  
     e( 36 - 36) =    -35.88772  eV     1   --> A_1  D_1  S_1  
     e( 37 - 37) =    -21.72651  eV     1   --> A_1  D_1  S_1  
     e( 38 - 38) =    -21.72427  eV     1   --> B_2  D_4  S_4  
     e( 39 - 39) =    -21.72270  eV     1   --> A_2  D_2  S_2  
     e( 40 - 40) =    -21.72256  eV     1   --> A_1  D_1  S_1  
     e( 41 - 41) =    -21.72125  eV     1   --> B_1  D_3  S_3  
     e( 42 - 42) =    -21.71913  eV     1   --> B_2  D_4  S_4  
     e( 43 - 43) =    -21.71892  eV     1   --> A_1  D_1  S_1  
     e( 44 - 44) =    -21.71798  eV     1   --> B_1  D_3  S_3  
     e( 45 - 45) =    -21.71736  eV     1   --> A_2  D_2  S_2  
     e( 46 - 48) =    -21.66414  eV     3   --> A_1  D_1  S_1  
     e( 46 - 48) =    -21.66414  eV     3   --> A_2  D_2  S_2  
     e( 46 - 48) =    -21.66414  eV     3   --> B_2  D_4  S_4  
     e( 49 - 49) =      8.91984  eV     1   --> A_1  D_1  S_1  
     e( 50 - 50) =      8.92838  eV     1   --> B_2  D_4  S_4  
     e( 51 - 51) =     10.27915  eV     1   --> A_1  D_1  S_1  
     e( 52 - 52) =     10.28791  eV     1   --> A_2  D_2  S_2  
     e( 53 - 53) =     11.48466  eV     1   --> B_1  D_3  S_3  
     e( 54 - 54) =     11.49130  eV     1   --> B_2  D_4  S_4  
     e( 55 - 55) =     12.32334  eV     1   --> A_1  D_1  S_1  
     e( 56 - 56) =     12.32835  eV     1   --> B_2  D_4  S_4  
     e( 57 - 57) =     12.83222  eV     1   --> A_1  D_1  S_1  
     e( 58 - 58) =     12.83864  eV     1   --> A_2  D_2  S_2  
     e( 59 - 59) =     13.24316  eV     1   --> A_1  D_1  S_1  
     e( 60 - 60) =     13.25315  eV     1   --> B_2  D_4  S_4  
     e( 61 - 61) =     13.57113  eV     1   --> B_1  D_3  S_3  
     e( 62 - 62) =     13.57980  eV     1   --> A_2  D_2  S_2  
     e( 63 - 63) =     13.70243  eV     1   --> B_1  D_3  S_3  
     e( 64 - 64) =     13.70871  eV     1   --> B_2  D_4  S_4  
     e( 65 - 65) =     14.10799  eV     1   --> B_1  D_3  S_3  
     e( 66 - 66) =     14.10845  eV     1   --> B_2  D_4  S_4  
     e( 67 - 67) =     14.25087  eV     1   --> A_1  D_1  S_1  
     e( 68 - 68) =     14.25746  eV     1   --> B_2  D_4  S_4  
     e( 69 - 69) =     14.43814  eV     1   --> A_2  D_2  S_2  
     e( 70 - 70) =     14.44099  eV     1   --> B_1  D_3  S_3  
     e( 71 - 71) =     14.66024  eV     1   --> A_1  D_1  S_1  
     e( 72 - 72) =     14.66300  eV     1   --> B_2  D_4  S_4  
     e( 73 - 73) =     14.69971  eV     1   --> B_1  D_3  S_3  
     e( 74 - 74) =     14.70934  eV     1   --> B_2  D_4  S_4  
     e( 75 - 75) =     14.72934  eV     1   --> A_2  D_2  S_2  
     e( 76 - 76) =     14.73181  eV     1   --> A_1  D_1  S_1  
     e( 77 - 77) =     14.94124  eV     1   --> B_2  D_4  S_4  
     e( 78 - 78) =     14.95013  eV     1   --> A_1  D_1  S_1  
     e( 79 - 79) =     15.22305  eV     1   --> A_2  D_2  S_2  
     e( 80 - 80) =     15.22801  eV     1   --> B_1  D_3  S_3  
     e( 81 - 81) =     15.33466  eV     1   --> B_1  D_3  S_3  
     e( 82 - 82) =     15.33640  eV     1   --> B_2  D_4  S_4  
     e( 83 - 83) =     15.47842  eV     1   --> A_2  D_2  S_2  
     e( 84 - 84) =     15.48016  eV     1   --> A_1  D_1  S_1  
     e( 85 - 85) =     15.59438  eV     1   --> A_2  D_2  S_2  
     e( 86 - 86) =     15.59504  eV     1   --> A_1  D_1  S_1  
     e( 87 - 87) =     15.64770  eV     1   --> B_2  D_4  S_4  
     e( 88 - 88) =     15.64884  eV     1   --> B_1  D_3  S_3  
     e( 89 - 89) =     15.91902  eV     1   --> A_1  D_1  S_1  
     e( 90 - 90) =     15.92051  eV     1   --> B_2  D_4  S_4  
     e( 91 - 91) =     15.92978  eV     1   --> B_1  D_3  S_3  
     e( 92 - 92) =     15.93037  eV     1   --> A_2  D_2  S_2  
     e( 93 - 94) =     16.07449  eV     2   --> A_1  D_1  S_1  
     e( 93 - 94) =     16.07449  eV     2   --> A_2  D_2  S_2  
     e( 95 - 95) =     16.31845  eV     1   --> A_1  D_1  S_1  
     e( 96 - 96) =     16.31926  eV     1   --> B_2  D_4  S_4  
     e( 97 - 97) =     17.46349  eV     1   --> A_2  D_2  S_2  
     e( 98 - 98) =     17.46456  eV     1   --> B_1  D_3  S_3  
     e( 99 - 99) =     17.54950  eV     1   --> B_1  D_3  S_3  
     e(100 -100) =     17.55900  eV     1   --> B_2  D_4  S_4  
     e(101 -101) =     17.62493  eV     1   --> A_2  D_2  S_2  
     e(102 -102) =     17.63126  eV     1   --> A_1  D_1  S_1  
     e(103 -103) =     17.73891  eV     1   --> A_1  D_1  S_1  
     e(104 -104) =     17.74546  eV     1   --> B_2  D_4  S_4  
     e(105 -105) =     17.84275  eV     1   --> B_1  D_3  S_3  
     e(106 -106) =     17.84785  eV     1   --> A_2  D_2  S_2  
     e(107 -107) =     17.86400  eV     1   --> A_1  D_1  S_1  
     e(108 -108) =     17.88572  eV     1   --> A_2  D_2  S_2  
     e(109 -109) =     17.96089  eV     1   --> B_2  D_4  S_4  
     e(110 -110) =     17.96614  eV     1   --> B_1  D_3  S_3  
     e(111 -111) =     18.03877  eV     1   --> A_1  D_1  S_1  
     e(112 -112) =     18.05255  eV     1   --> B_2  D_4  S_4  
     e(113 -113) =     18.36400  eV     1   --> B_1  D_3  S_3  
     e(114 -114) =     18.37111  eV     1   --> B_2  D_4  S_4  
     e(115 -115) =     19.18118  eV     1   --> B_2  D_4  S_4  
     e(116 -116) =     19.18664  eV     1   --> A_1  D_1  S_1  
     e(117 -117) =     19.64617  eV     1   --> B_1  D_3  S_3  
     e(118 -118) =     19.65523  eV     1   --> B_2  D_4  S_4  
     e(119 -119) =     19.77146  eV     1   --> A_1  D_1  S_1  
     e(120 -120) =     19.77406  eV     1   --> A_2  D_2  S_2  
     e(121 -121) =     20.97418  eV     1   --> A_2  D_2  S_2  
     e(122 -122) =     20.97606  eV     1   --> B_1  D_3  S_3  
     e(123 -123) =     21.27813  eV     1   --> A_1  D_1  S_1  
     e(124 -124) =     21.27938  eV     1   --> B_2  D_4  S_4  

 **************************************************************************

 **************************************************************************

                    xk=(   0.47500,   0.26250,   0.71250  )

     point group C_1 (1)    
     there are  1 classes
     the character table:

       E    
A      1.00

     the symmetry operations in each class and the name of the first element:

     E        1
                                                                 

     Band symmetry, C_1 (1)     point group:

     e(  1 -  1) =    -69.82165  eV     1   --> A              
     e(  2 -  2) =    -69.82121  eV     1   --> A              
     e(  3 -  3) =    -69.81840  eV     1   --> A              
     e(  4 -  4) =    -69.81810  eV     1   --> A              
     e(  5 -  5) =    -69.81800  eV     1   --> A              
     e(  6 -  6) =    -69.81770  eV     1   --> A              
     e(  7 -  7) =    -69.81488  eV     1   --> A              
     e(  8 -  8) =    -69.81447  eV     1   --> A              
     e(  9 -  9) =    -47.89021  eV     1   --> A              
     e( 10 - 10) =    -47.89006  eV     1   --> A              
     e( 11 - 11) =    -47.88990  eV     1   --> A              
     e( 12 - 12) =    -47.83147  eV     1   --> A              
     e( 13 - 13) =    -35.93869  eV     1   --> A              
     e( 14 - 14) =    -35.93852  eV     1   --> A              
     e( 15 - 15) =    -35.93456  eV     1   --> A              
     e( 16 - 17) =    -35.93437  eV     2   -->   2 A              
     e( 18 - 18) =    -35.93373  eV     1   --> A              
     e( 19 - 19) =    -35.93220  eV     1   --> A              
     e( 20 - 20) =    -35.93162  eV     1   --> A              
     e( 21 - 21) =    -35.91913  eV     1   --> A              
     e( 22 - 22) =    -35.91655  eV     1   --> A              
     e( 23 - 23) =    -35.91621  eV     1   --> A              
     e( 24 - 24) =    -35.91443  eV     1   --> A              
     e( 25 - 25) =    -35.91149  eV     1   --> A              
     e( 26 - 26) =    -35.91114  eV     1   --> A              
     e( 27 - 27) =    -35.91080  eV     1   --> A              
     e( 28 - 28) =    -35.90658  eV     1   --> A              
     e( 29 - 29) =    -35.89526  eV     1   --> A              
     e( 30 - 30) =    -35.89472  eV     1   --> A              
     e( 31 - 31) =    -35.89309  eV     1   --> A              
     e( 32 - 32) =    -35.89261  eV     1   --> A              
     e( 33 - 33) =    -35.89124  eV     1   --> A              
     e( 34 - 34) =    -35.89076  eV     1   --> A              
     e( 35 - 35) =    -35.88934  eV     1   --> A              
     e( 36 - 36) =    -35.88888  eV     1   --> A              
     e( 37 - 37) =    -21.72682  eV     1   --> A              
     e( 38 - 38) =    -21.72429  eV     1   --> A              
     e( 39 - 39) =    -21.72299  eV     1   --> A              
     e( 40 - 40) =    -21.72286  eV     1   --> A              
     e( 41 - 41) =    -21.72075  eV     1   --> A              
     e( 42 - 42) =    -21.71904  eV     1   --> A              
     e( 43 - 43) =    -21.71877  eV     1   --> A              
     e( 44 - 44) =    -21.71799  eV     1   --> A              
     e( 45 - 45) =    -21.71738  eV     1   --> A              
     e( 46 - 48) =    -21.66415  eV     3   -->   3 A              
     e( 49 - 49) =      8.93505  eV     1   --> A              
     e( 50 - 50) =      9.13747  eV     1   --> A              
     e( 51 - 51) =     10.21986  eV     1   --> A              
     e( 52 - 52) =     10.24529  eV     1   --> A              
     e( 53 - 53) =     11.40627  eV     1   --> A              
     e( 54 - 54) =     11.42519  eV     1   --> A              
     e( 55 - 55) =     12.15443  eV     1   --> A              
     e( 56 - 56) =     12.31283  eV     1   --> A              
     e( 57 - 57) =     12.91659  eV     1   --> A              
     e( 58 - 58) =     12.92492  eV     1   --> A              
     e( 59 - 59) =     13.18990  eV     1   --> A              
     e( 60 - 60) =     13.23468  eV     1   --> A              
     e( 61 - 61) =     13.50471  eV     1   --> A              
     e( 62 - 62) =     13.57553  eV     1   --> A              
     e( 63 - 63) =     13.64904  eV     1   --> A              
     e( 64 - 64) =     13.65547  eV     1   --> A              
     e( 65 - 65) =     14.17128  eV     1   --> A              
     e( 66 - 66) =     14.17268  eV     1   --> A              
     e( 67 - 67) =     14.27920  eV     1   --> A              
     e( 68 - 68) =     14.32047  eV     1   --> A              
     e( 69 - 69) =     14.46072  eV     1   --> A              
     e( 70 - 70) =     14.47881  eV     1   --> A              
     e( 71 - 71) =     14.63784  eV     1   --> A              
     e( 72 - 72) =     14.65388  eV     1   --> A              
     e( 73 - 73) =     14.68380  eV     1   --> A              
     e( 74 - 74) =     14.69607  eV     1   --> A              
     e( 75 - 75) =     14.71891  eV     1   --> A              
     e( 76 - 76) =     14.75195  eV     1   --> A              
     e( 77 - 77) =     14.93782  eV     1   --> A              
     e( 78 - 78) =     14.96881  eV     1   --> A              
     e( 79 - 79) =     15.17770  eV     1   --> A              
     e( 80 - 80) =     15.24024  eV     1   --> A              
     e( 81 - 81) =     15.32212  eV     1   --> A              
     e( 82 - 82) =     15.34725  eV     1   --> A              
     e( 83 - 83) =     15.40482  eV     1   --> A              
     e( 84 - 84) =     15.42240  eV     1   --> A              
     e( 85 - 85) =     15.61418  eV     1   --> A              
     e( 86 - 86) =     15.61717  eV     1   --> A              
     e( 87 - 87) =     15.65854  eV     1   --> A              
     e( 88 - 88) =     15.65945  eV     1   --> A              
     e( 89 - 89) =     15.84996  eV     1   --> A              
     e( 90 - 90) =     15.87179  eV     1   --> A              
     e( 91 - 91) =     15.91535  eV     1   --> A              
     e( 92 - 92) =     15.94276  eV     1   --> A              
     e( 93 - 93) =     16.04323  eV     1   --> A              
     e( 94 - 94) =     16.05168  eV     1   --> A              
     e( 95 - 95) =     16.26124  eV     1   --> A              
     e( 96 - 96) =     16.27254  eV     1   --> A              
     e( 97 - 97) =     17.47757  eV     1   --> A              
     e( 98 - 98) =     17.49225  eV     1   --> A              
     e( 99 - 99) =     17.55554  eV     1   --> A              
     e(100 -100) =     17.56475  eV     1   --> A              
     e(101 -101) =     17.62534  eV     1   --> A              
     e(102 -102) =     17.63227  eV     1   --> A              
     e(103 -103) =     17.71979  eV     1   --> A              
     e(104 -104) =     17.72826  eV     1   --> A              
     e(105 -105) =     17.87489  eV     1   --> A              
     e(106 -106) =     17.88544  eV     1   --> A              
     e(107 -107) =     17.89558  eV     1   --> A              
     e(108 -108) =     17.92031  eV     1   --> A              
     e(109 -109) =     17.98570  eV     1   --> A              
     e(110 -110) =     17.99192  eV     1   --> A              
     e(111 -111) =     18.04544  eV     1   --> A              
     e(112 -112) =     18.06548  eV     1   --> A              
     e(113 -113) =     18.37656  eV     1   --> A              
     e(114 -114) =     18.38486  eV     1   --> A              
     e(115 -115) =     18.96440  eV     1   --> A              
     e(116 -116) =     19.13565  eV     1   --> A              
     e(117 -117) =     19.86100  eV     1   --> A              
     e(118 -118) =     19.89829  eV     1   --> A              
     e(119 -119) =     20.02328  eV     1   --> A              
     e(120 -120) =     20.04264  eV     1   --> A              
     e(121 -121) =     20.91238  eV     1   --> A              
     e(122 -122) =     21.16877  eV     1   --> A              
     e(123 -123) =     21.22706  eV     1   --> A              
     e(124 -124) =     21.60820  eV     1   --> A              

 **************************************************************************

 **************************************************************************

                    xk=(   0.45000,   0.27500,   0.67500  )

     Band symmetry, C_1 (1)     point group:

     e(  1 -  1) =    -69.82156  eV     1   --> A              
     e(  2 -  2) =    -69.82072  eV     1   --> A              
     e(  3 -  3) =    -69.81877  eV     1   --> A              
     e(  4 -  4) =    -69.81811  eV     1   --> A              
     e(  5 -  5) =    -69.81800  eV     1   --> A              
     e(  6 -  6) =    -69.81733  eV     1   --> A              
     e(  7 -  7) =    -69.81544  eV     1   --> A              
     e(  8 -  8) =    -69.81461  eV     1   --> A              
     e(  9 -  9) =    -47.89018  eV     1   --> A              
     e( 10 - 10) =    -47.89007  eV     1   --> A              
     e( 11 - 11) =    -47.88992  eV     1   --> A              
     e( 12 - 12) =    -47.83147  eV     1   --> A              
     e( 13 - 13) =    -35.93714  eV     1   --> A              
     e( 14 - 14) =    -35.93663  eV     1   --> A              
     e( 15 - 15) =    -35.93405  eV     1   --> A              
     e( 16 - 16) =    -35.93283  eV     1   --> A              
     e( 17 - 17) =    -35.93200  eV     1   --> A              
     e( 18 - 18) =    -35.93169  eV     1   --> A              
     e( 19 - 19) =    -35.92953  eV     1   --> A              
     e( 20 - 20) =    -35.92831  eV     1   --> A              
     e( 21 - 21) =    -35.92140  eV     1   --> A              
     e( 22 - 22) =    -35.91925  eV     1   --> A              
     e( 23 - 23) =    -35.91858  eV     1   --> A              
     e( 24 - 24) =    -35.91490  eV     1   --> A              
     e( 25 - 25) =    -35.91142  eV     1   --> A              
     e( 26 - 26) =    -35.90869  eV     1   --> A              
     e( 27 - 27) =    -35.90793  eV     1   --> A              
     e( 28 - 28) =    -35.90452  eV     1   --> A              
     e( 29 - 29) =    -35.89858  eV     1   --> A              
     e( 30 - 30) =    -35.89767  eV     1   --> A              
     e( 31 - 31) =    -35.89466  eV     1   --> A              
     e( 32 - 32) =    -35.89408  eV     1   --> A              
     e( 33 - 33) =    -35.89376  eV     1   --> A              
     e( 34 - 34) =    -35.89322  eV     1   --> A              
     e( 35 - 35) =    -35.89082  eV     1   --> A              
     e( 36 - 36) =    -35.88994  eV     1   --> A              
     e( 37 - 37) =    -21.72711  eV     1   --> A              
     e( 38 - 38) =    -21.72429  eV     1   --> A              
     e( 39 - 40) =    -21.72327  eV     2   -->   2 A              
     e( 41 - 41) =    -21.72030  eV     1   --> A              
     e( 42 - 42) =    -21.71910  eV     1   --> A              
     e( 43 - 43) =    -21.71849  eV     1   --> A              
     e( 44 - 44) =    -21.71801  eV     1   --> A              
     e( 45 - 45) =    -21.71740  eV     1   --> A              
     e( 46 - 48) =    -21.66416  eV     3   -->   3 A              
     e( 49 - 49) =      8.96408  eV     1   --> A              
     e( 50 - 50) =      9.35857  eV     1   --> A              
     e( 51 - 51) =     10.11332  eV     1   --> A              
     e( 52 - 52) =     10.21222  eV     1   --> A              
     e( 53 - 53) =     11.33912  eV     1   --> A              
     e( 54 - 54) =     11.41557  eV     1   --> A              
     e( 55 - 55) =     11.95785  eV     1   --> A              
     e( 56 - 56) =     12.27091  eV     1   --> A              
     e( 57 - 57) =     12.98878  eV     1   --> A              
     e( 58 - 58) =     13.00644  eV     1   --> A              
     e( 59 - 59) =     13.15689  eV     1   --> A              
     e( 60 - 60) =     13.24272  eV     1   --> A              
     e( 61 - 61) =     13.44374  eV     1   --> A              
     e( 62 - 62) =     13.56861  eV     1   --> A              
     e( 63 - 63) =     13.60374  eV     1   --> A              
     e( 64 - 64) =     13.61012  eV     1   --> A              
     e( 65 - 65) =     14.23166  eV     1   --> A              
     e( 66 - 66) =     14.23562  eV     1   --> A              
     e( 67 - 67) =     14.30570  eV     1   --> A              
     e( 68 - 68) =     14.37837  eV     1   --> A              
     e( 69 - 69) =     14.49104  eV     1   --> A              
     e( 70 - 70) =     14.51666  eV     1   --> A              
     e( 71 - 71) =     14.60300  eV     1   --> A              
     e( 72 - 72) =     14.61455  eV     1   --> A              
     e( 73 - 73) =     14.65503  eV     1   --> A              
     e( 74 - 74) =     14.70793  eV     1   --> A              
     e( 75 - 75) =     14.71641  eV     1   --> A              
     e( 76 - 76) =     14.77772  eV     1   --> A              
     e( 77 - 77) =     14.93248  eV     1   --> A              
     e( 78 - 78) =     15.01219  eV     1   --> A              
     e( 79 - 79) =     15.14047  eV     1   --> A              
     e( 80 - 80) =     15.25812  eV     1   --> A              
     e( 81 - 81) =     15.26084  eV     1   --> A              
     e( 82 - 82) =     15.33476  eV     1   --> A              
     e( 83 - 83) =     15.34947  eV     1   --> A              
     e( 84 - 84) =     15.38874  eV     1   --> A              
     e( 85 - 85) =     15.63378  eV     1   --> A              
     e( 86 - 86) =     15.64267  eV     1   --> A              
     e( 87 - 87) =     15.67301  eV     1   --> A              
     e( 88 - 88) =     15.67791  eV     1   --> A              
     e( 89 - 89) =     15.78499  eV     1   --> A              
     e( 90 - 90) =     15.82199  eV     1   --> A              
     e( 91 - 91) =     15.90860  eV     1   --> A              
     e( 92 - 92) =     15.95549  eV     1   --> A              
     e( 93 - 93) =     16.01200  eV     1   --> A              
     e( 94 - 94) =     16.04569  eV     1   --> A              
     e( 95 - 95) =     16.20119  eV     1   --> A              
     e( 96 - 96) =     16.21425  eV     1   --> A              
     e( 97 - 97) =     17.49218  eV     1   --> A              
     e( 98 - 98) =     17.51824  eV     1   --> A              
     e( 99 - 99) =     17.55069  eV     1   --> A              
     e(100 -100) =     17.56724  eV     1   --> A              
     e(101 -101) =     17.62395  eV     1   --> A              
     e(102 -102) =     17.64148  eV     1   --> A              
     e(103 -103) =     17.69657  eV     1   --> A              
     e(104 -104) =     17.70909  eV     1   --> A              
     e(105 -105) =     17.90290  eV     1   --> A              
     e(106 -106) =     17.90735  eV     1   --> A              
     e(107 -107) =     17.92390  eV     1   --> A              
     e(108 -108) =     17.96584  eV     1   --> A              
     e(109 -109) =     18.00859  eV     1   --> A              
     e(110 -110) =     18.02383  eV     1   --> A              
     e(111 -111) =     18.04806  eV     1   --> A              
     e(112 -112) =     18.07931  eV     1   --> A              
     e(113 -113) =     18.38467  eV     1   --> A              
     e(114 -114) =     18.41362  eV     1   --> A              
     e(115 -115) =     18.78066  eV     1   --> A              
     e(116 -116) =     19.08219  eV     1   --> A              
     e(117 -117) =     20.03506  eV     1   --> A              
     e(118 -118) =     20.16021  eV     1   --> A              
     e(119 -119) =     20.28785  eV     1   --> A              
     e(120 -120) =     20.33100  eV     1   --> A              
     e(121 -121) =     20.84595  eV     1   --> A              
     e(122 -122) =     21.05936  eV     1   --> A              
     e(123 -123) =     21.45010  eV     1   --> A              
     e(124 -124) =     21.94194  eV     1   --> A              

 **************************************************************************

 **************************************************************************

                    xk=(   0.42500,   0.28750,   0.63750  )

     Band symmetry, C_1 (1)     point group:

     e(  1 -  1) =    -69.82139  eV     1   --> A              
     e(  2 -  2) =    -69.82016  eV     1   --> A              
     e(  3 -  3) =    -69.81916  eV     1   --> A              
     e(  4 -  4) =    -69.81814  eV     1   --> A              
     e(  5 -  5) =    -69.81799  eV     1   --> A              
     e(  6 -  6) =    -69.81695  eV     1   --> A              
     e(  7 -  7) =    -69.81600  eV     1   --> A              
     e(  8 -  8) =    -69.81476  eV     1   --> A              
     e(  9 - 10) =    -47.89015  eV     2   -->   2 A              
     e( 11 - 11) =    -47.88993  eV     1   --> A              
     e( 12 - 12) =    -47.83147  eV     1   --> A              
     e( 13 - 13) =    -35.93579  eV     1   --> A              
     e( 14 - 14) =    -35.93490  eV     1   --> A              
     e( 15 - 15) =    -35.93361  eV     1   --> A              
     e( 16 - 16) =    -35.93188  eV     1   --> A              
     e( 17 - 17) =    -35.92901  eV     1   --> A              
     e( 18 - 18) =    -35.92835  eV     1   --> A              
     e( 19 - 19) =    -35.92665  eV     1   --> A              
     e( 20 - 20) =    -35.92465  eV     1   --> A              
     e( 21 - 21) =    -35.92340  eV     1   --> A              
     e( 22 - 22) =    -35.92185  eV     1   --> A              
     e( 23 - 23) =    -35.92078  eV     1   --> A              
     e( 24 - 24) =    -35.91780  eV     1   --> A              
     e( 25 - 25) =    -35.90875  eV     1   --> A              
     e( 26 - 26) =    -35.90629  eV     1   --> A              
     e( 27 - 27) =    -35.90525  eV     1   --> A              
     e( 28 - 28) =    -35.90249  eV     1   --> A              
     e( 29 - 29) =    -35.90196  eV     1   --> A              
     e( 30 - 30) =    -35.90073  eV     1   --> A              
     e( 31 - 31) =    -35.89843  eV     1   --> A              
     e( 32 - 32) =    -35.89703  eV     1   --> A              
     e( 33 - 33) =    -35.89490  eV     1   --> A              
     e( 34 - 34) =    -35.89367  eV     1   --> A              
     e( 35 - 35) =    -35.89240  eV     1   --> A              
     e( 36 - 36) =    -35.89098  eV     1   --> A              
     e( 37 - 37) =    -21.72733  eV     1   --> A              
     e( 38 - 38) =    -21.72427  eV     1   --> A              
     e( 39 - 40) =    -21.72348  eV     2   -->   2 A              
     e( 41 - 41) =    -21.71993  eV     1   --> A              
     e( 42 - 42) =    -21.71912  eV     1   --> A              
     e( 43 - 43) =    -21.71825  eV     1   --> A              
     e( 44 - 44) =    -21.71801  eV     1   --> A              
     e( 45 - 45) =    -21.71742  eV     1   --> A              
     e( 46 - 46) =    -21.66414  eV     1   --> A              
     e( 47 - 48) =    -21.66404  eV     2   -->   2 A              
     e( 49 - 49) =      9.01070  eV     1   --> A              
     e( 50 - 50) =      9.58248  eV     1   --> A              
     e( 51 - 51) =      9.96879  eV     1   --> A              
     e( 52 - 52) =     10.18686  eV     1   --> A              
     e( 53 - 53) =     11.28641  eV     1   --> A              
     e( 54 - 54) =     11.45890  eV     1   --> A              
     e( 55 - 55) =     11.74929  eV     1   --> A              
     e( 56 - 56) =     12.20570  eV     1   --> A              
     e( 57 - 57) =     13.04641  eV     1   --> A              
     e( 58 - 58) =     13.07771  eV     1   --> A              
     e( 59 - 59) =     13.14123  eV     1   --> A              
     e( 60 - 60) =     13.26827  eV     1   --> A              
     e( 61 - 61) =     13.39486  eV     1   --> A              
     e( 62 - 62) =     13.55628  eV     1   --> A              
     e( 63 - 63) =     13.56806  eV     1   --> A              
     e( 64 - 64) =     13.57403  eV     1   --> A              
     e( 65 - 65) =     14.28552  eV     1   --> A              
     e( 66 - 66) =     14.29292  eV     1   --> A              
     e( 67 - 67) =     14.32804  eV     1   --> A              
     e( 68 - 68) =     14.42220  eV     1   --> A              
     e( 69 - 69) =     14.52353  eV     1   --> A              
     e( 70 - 70) =     14.55368  eV     1   --> A              
     e( 71 - 71) =     14.56997  eV     1   --> A              
     e( 72 - 72) =     14.59506  eV     1   --> A              
     e( 73 - 73) =     14.62336  eV     1   --> A              
     e( 74 - 74) =     14.70567  eV     1   --> A              
     e( 75 - 75) =     14.71400  eV     1   --> A              
     e( 76 - 76) =     14.79050  eV     1   --> A              
     e( 77 - 77) =     14.92883  eV     1   --> A              
     e( 78 - 78) =     15.07018  eV     1   --> A              
     e( 79 - 79) =     15.11679  eV     1   --> A              
     e( 80 - 80) =     15.19344  eV     1   --> A              
     e( 81 - 81) =     15.27771  eV     1   --> A              
     e( 82 - 82) =     15.28523  eV     1   --> A              
     e( 83 - 83) =     15.33868  eV     1   --> A              
     e( 84 - 84) =     15.34737  eV     1   --> A              
     e( 85 - 85) =     15.65297  eV     1   --> A              
     e( 86 - 86) =     15.66926  eV     1   --> A              
     e( 87 - 87) =     15.68278  eV     1   --> A              
     e( 88 - 88) =     15.70474  eV     1   --> A              
     e( 89 - 89) =     15.73355  eV     1   --> A              
     e( 90 - 90) =     15.77700  eV     1   --> A              
     e( 91 - 91) =     15.89978  eV     1   --> A              
     e( 92 - 92) =     15.96314  eV     1   --> A              
     e( 93 - 93) =     15.98498  eV     1   --> A              
     e( 94 - 94) =     16.05543  eV     1   --> A              
     e( 95 - 95) =     16.14555  eV     1   --> A              
     e( 96 - 96) =     16.14645  eV     1   --> A              
     e( 97 - 97) =     17.50923  eV     1   --> A              
     e( 98 - 98) =     17.53919  eV     1   --> A              
     e( 99 - 99) =     17.53966  eV     1   --> A              
     e(100 -100) =     17.57045  eV     1   --> A              
     e(101 -101) =     17.62123  eV     1   --> A              
     e(102 -102) =     17.65446  eV     1   --> A              
     e(103 -103) =     17.67455  eV     1   --> A              
     e(104 -104) =     17.68860  eV     1   --> A              
     e(105 -105) =     17.92241  eV     1   --> A              
     e(106 -106) =     17.93325  eV     1   --> A              
     e(107 -107) =     17.94870  eV     1   --> A              
     e(108 -108) =     18.00006  eV     1   --> A              
     e(109 -109) =     18.02948  eV     1   --> A              
     e(110 -110) =     18.04520  eV     1   --> A              
     e(111 -111) =     18.05251  eV     1   --> A              
     e(112 -112) =     18.09032  eV     1   --> A              
     e(113 -113) =     18.39106  eV     1   --> A              
     e(114 -114) =     18.46011  eV     1   --> A              
     e(115 -115) =     18.63418  eV     1   --> A              
     e(116 -116) =     19.02428  eV     1   --> A              
     e(117 -117) =     20.18858  eV     1   --> A              
     e(118 -118) =     20.43315  eV     1   --> A              
     e(119 -119) =     20.56337  eV     1   --> A              
     e(120 -120) =     20.58498  eV     1   --> A              
     e(121 -121) =     20.77760  eV     1   --> A              
     e(122 -122) =     20.95243  eV     1   --> A              
     e(123 -123) =     21.61947  eV     1   --> A              
     e(124 -124) =     22.26229  eV     1   --> A              

 **************************************************************************

 **************************************************************************

                    xk=(   0.40000,   0.30000,   0.60000  )

     point group C_s (m)    
     there are  2 classes
     the character table:

       E     s    
A'     1.00  1.00
A''    1.00 -1.00

     the symmetry operations in each class and the name of the first element:

     E        1
                                                                 
     s        2
                                                                 

     Band symmetry, C_s (m)     point group:

     e(  1 -  1) =    -69.82125  eV     1   --> A'             
     e(  2 -  3) =    -69.81959  eV     2   --> A'             
     e(  2 -  3) =    -69.81959  eV     2   --> A''            
     e(  4 -  4) =    -69.81814  eV     1   --> A'             
     e(  5 -  5) =    -69.81800  eV     1   --> A'             
     e(  6 -  7) =    -69.81656  eV     2   --> A'             
     e(  6 -  7) =    -69.81656  eV     2   --> A''            
     e(  8 -  8) =    -69.81494  eV     1   --> A'             
     e(  9 - 10) =    -47.89013  eV     2   --> A'             
     e(  9 - 10) =    -47.89013  eV     2   --> A''            
     e( 11 - 11) =    -47.88995  eV     1   --> A'             
     e( 12 - 12) =    -47.83147  eV     1   --> A'             
     e( 13 - 13) =    -35.93465  eV     1   --> A'             
     e( 14 - 15) =    -35.93322  eV     2   --> A'             
     e( 14 - 15) =    -35.93322  eV     2   --> A''            
     e( 16 - 16) =    -35.93092  eV     1   --> A'             
     e( 17 - 17) =    -35.92601  eV     1   --> A''            
     e( 18 - 18) =    -35.92584  eV     1   --> A'             
     e( 19 - 19) =    -35.92544  eV     1   --> A''            
     e( 20 - 20) =    -35.92361  eV     1   --> A'             
     e( 21 - 21) =    -35.92290  eV     1   --> A''            
     e( 22 - 22) =    -35.92272  eV     1   --> A'             
     e( 23 - 23) =    -35.92138  eV     1   --> A'             
     e( 24 - 24) =    -35.92039  eV     1   --> A''            
     e( 25 - 25) =    -35.90665  eV     1   --> A''            
     e( 26 - 26) =    -35.90506  eV     1   --> A'             
     e( 27 - 27) =    -35.90410  eV     1   --> A''            
     e( 28 - 28) =    -35.90393  eV     1   --> A'             
     e( 29 - 29) =    -35.90292  eV     1   --> A'             
     e( 30 - 30) =    -35.90200  eV     1   --> A''            
     e( 31 - 31) =    -35.90062  eV     1   --> A''            
     e( 32 - 32) =    -35.90045  eV     1   --> A'             
     e( 33 - 33) =    -35.89595  eV     1   --> A'             
     e( 34 - 35) =    -35.89411  eV     2   --> A'             
     e( 34 - 35) =    -35.89411  eV     2   --> A''            
     e( 36 - 36) =    -35.89217  eV     1   --> A'             
     e( 37 - 37) =    -21.72749  eV     1   --> A'             
     e( 38 - 38) =    -21.72430  eV     1   --> A'             
     e( 39 - 40) =    -21.72363  eV     2   --> A'             
     e( 39 - 40) =    -21.72363  eV     2   --> A''            
     e( 41 - 41) =    -21.71971  eV     1   --> A'             
     e( 42 - 42) =    -21.71909  eV     1   --> A''            
     e( 43 - 44) =    -21.71810  eV     2   --> A'             
     e( 43 - 44) =    -21.71810  eV     2   --> A''            
     e( 45 - 45) =    -21.71743  eV     1   --> A''            
     e( 46 - 46) =    -21.66414  eV     1   --> A'             
     e( 47 - 48) =    -21.66403  eV     2   --> A'             
     e( 47 - 48) =    -21.66403  eV     2   --> A''            
     e( 49 - 49) =      9.07431  eV     1   --> A'             
     e( 50 - 50) =      9.79748  eV     1   --> A'             
     e( 51 - 51) =      9.80288  eV     1   --> A''            
     e( 52 - 52) =     10.16926  eV     1   --> A'             
     e( 53 - 53) =     11.24943  eV     1   --> A'             
     e( 54 - 54) =     11.54217  eV     1   --> A''            
     e( 55 - 55) =     11.54687  eV     1   --> A'             
     e( 56 - 56) =     12.12600  eV     1   --> A'             
     e( 57 - 57) =     13.08801  eV     1   --> A'             
     e( 58 - 58) =     13.13353  eV     1   --> A'             
     e( 59 - 59) =     13.13627  eV     1   --> A''            
     e( 60 - 60) =     13.29212  eV     1   --> A''            
     e( 61 - 61) =     13.36950  eV     1   --> A'             
     e( 62 - 62) =     13.54062  eV     1   --> A''            
     e( 63 - 63) =     13.54181  eV     1   --> A'             
     e( 64 - 64) =     13.54792  eV     1   --> A''            
     e( 65 - 65) =     14.32534  eV     1   --> A'             
     e( 66 - 66) =     14.34076  eV     1   --> A''            
     e( 67 - 67) =     14.34381  eV     1   --> A'             
     e( 68 - 68) =     14.44883  eV     1   --> A'             
     e( 69 - 69) =     14.54376  eV     1   --> A'             
     e( 70 - 70) =     14.55902  eV     1   --> A''            
     e( 71 - 71) =     14.58534  eV     1   --> A''            
     e( 72 - 72) =     14.58990  eV     1   --> A'             
     e( 73 - 73) =     14.59465  eV     1   --> A''            
     e( 74 - 74) =     14.69775  eV     1   --> A''            
     e( 75 - 75) =     14.70636  eV     1   --> A'             
     e( 76 - 76) =     14.78254  eV     1   --> A'             
     e( 77 - 77) =     14.93571  eV     1   --> A''            
     e( 78 - 78) =     15.10684  eV     1   --> A'             
     e( 79 - 79) =     15.13321  eV     1   --> A''            
     e( 80 - 80) =     15.13434  eV     1   --> A'             
     e( 81 - 81) =     15.25546  eV     1   --> A''            
     e( 82 - 82) =     15.29493  eV     1   --> A''            
     e( 83 - 83) =     15.29736  eV     1   --> A'             
     e( 84 - 84) =     15.32758  eV     1   --> A'             
     e( 85 - 85) =     15.66714  eV     1   --> A''            
     e( 86 - 86) =     15.68728  eV     1   --> A'             
     e( 87 - 87) =     15.69894  eV     1   --> A'             
     e( 88 - 88) =     15.69934  eV     1   --> A''            
     e( 89 - 90) =     15.73762  eV     2   --> A'             
     e( 89 - 90) =     15.73762  eV     2   --> A''            
     e( 91 - 91) =     15.88729  eV     1   --> A'             
     e( 92 - 92) =     15.95472  eV     1   --> A''            
     e( 93 - 93) =     15.96612  eV     1   --> A'             
     e( 94 - 95) =     16.07435  eV     2   --> A'             
     e( 94 - 95) =     16.07435  eV     2   --> A''            
     e( 96 - 96) =     16.10790  eV     1   --> A'             
     e( 97 - 97) =     17.52778  eV     1   --> A''            
     e( 98 - 98) =     17.53056  eV     1   --> A'             
     e( 99 - 99) =     17.55093  eV     1   --> A'             
     e(100 -100) =     17.57399  eV     1   --> A''            
     e(101 -101) =     17.61857  eV     1   --> A'             
     e(102 -102) =     17.65797  eV     1   --> A''            
     e(103 -103) =     17.66630  eV     1   --> A'             
     e(104 -104) =     17.66831  eV     1   --> A''            
     e(105 -105) =     17.94093  eV     1   --> A'             
     e(106 -106) =     17.95361  eV     1   --> A''            
     e(107 -107) =     17.96886  eV     1   --> A'             
     e(108 -108) =     18.01856  eV     1   --> A'             
     e(109 -109) =     18.04702  eV     1   --> A'             
     e(110 -110) =     18.04745  eV     1   --> A''            
     e(111 -111) =     18.06262  eV     1   --> A''            
     e(112 -112) =     18.09696  eV     1   --> A''            
     e(113 -113) =     18.39743  eV     1   --> A'             
     e(114 -114) =     18.52318  eV     1   --> A'             
     e(115 -115) =     18.52715  eV     1   --> A''            
     e(116 -116) =     18.96237  eV     1   --> A'             
     e(117 -117) =     20.32420  eV     1   --> A'             
     e(118 -118) =     20.70865  eV     1   --> A'             
     e(119 -119) =     20.70929  eV     1   --> A''            
     e(120 -120) =     20.74914  eV     1   --> A''            
     e(121 -121) =     20.84924  eV     1   --> A''            
     e(122 -122) =     20.85044  eV     1   --> A'             
     e(123 -123) =     21.70376  eV     1   --> A'             
     e(124 -124) =     22.45454  eV     1   --> A''            

 **************************************************************************

 **************************************************************************

                    xk=(   0.37500,   0.31250,   0.56250  )

     point group C_1 (1)    
     there are  1 classes
     the character table:

       E    
A      1.00

     the symmetry operations in each class and the name of the first element:

     E        1
                                                                 

     Band symmetry, C_1 (1)     point group:

     e(  1 -  1) =    -69.82107  eV     1   --> A              
     e(  2 -  2) =    -69.81999  eV     1   --> A              
     e(  3 -  3) =    -69.81902  eV     1   --> A              
     e(  4 -  5) =    -69.81810  eV     2   -->   2 A              
     e(  6 -  6) =    -69.81712  eV     1   --> A              
     e(  7 -  7) =    -69.81613  eV     1   --> A              
     e(  8 -  8) =    -69.81514  eV     1   --> A              
     e(  9 - 10) =    -47.89013  eV     2   -->   2 A              
     e( 11 - 11) =    -47.88996  eV     1   --> A              
     e( 12 - 12) =    -47.83147  eV     1   --> A              
     e( 13 - 13) =    -35.93351  eV     1   --> A              
     e( 14 - 14) =    -35.93274  eV     1   --> A              
     e( 15 - 15) =    -35.93147  eV     1   --> A              
     e( 16 - 16) =    -35.93007  eV     1   --> A              
     e( 17 - 17) =    -35.92766  eV     1   --> A              
     e( 18 - 18) =    -35.92703  eV     1   --> A              
     e( 19 - 19) =    -35.92537  eV     1   --> A              
     e( 20 - 20) =    -35.92388  eV     1   --> A              
     e( 21 - 21) =    -35.92197  eV     1   --> A              
     e( 22 - 22) =    -35.92042  eV     1   --> A              
     e( 23 - 23) =    -35.91957  eV     1   --> A              
     e( 24 - 24) =    -35.91701  eV     1   --> A              
     e( 25 - 25) =    -35.90974  eV     1   --> A              
     e( 26 - 26) =    -35.90750  eV     1   --> A              
     e( 27 - 27) =    -35.90654  eV     1   --> A              
     e( 28 - 28) =    -35.90396  eV     1   --> A              
     e( 29 - 29) =    -35.90298  eV     1   --> A              
     e( 30 - 30) =    -35.90181  eV     1   --> A              
     e( 31 - 31) =    -35.89967  eV     1   --> A              
     e( 32 - 32) =    -35.89856  eV     1   --> A              
     e( 33 - 33) =    -35.89689  eV     1   --> A              
     e( 34 - 34) =    -35.89568  eV     1   --> A              
     e( 35 - 35) =    -35.89463  eV     1   --> A              
     e( 36 - 36) =    -35.89336  eV     1   --> A              
     e( 37 - 37) =    -21.72756  eV     1   --> A              
     e( 38 - 38) =    -21.72435  eV     1   --> A              
     e( 39 - 40) =    -21.72367  eV     2   -->   2 A              
     e( 41 - 41) =    -21.71964  eV     1   --> A              
     e( 42 - 42) =    -21.71895  eV     1   --> A              
     e( 43 - 43) =    -21.71816  eV     1   --> A              
     e( 44 - 44) =    -21.71795  eV     1   --> A              
     e( 45 - 45) =    -21.71743  eV     1   --> A              
     e( 46 - 48) =    -21.66412  eV     3   -->   3 A              
     e( 49 - 49) =      9.15411  eV     1   --> A              
     e( 50 - 50) =      9.62037  eV     1   --> A              
     e( 51 - 51) =      9.99389  eV     1   --> A              
     e( 52 - 52) =     10.15965  eV     1   --> A              
     e( 53 - 53) =     11.22888  eV     1   --> A              
     e( 54 - 54) =     11.36567  eV     1   --> A              
     e( 55 - 55) =     11.66149  eV     1   --> A              
     e( 56 - 56) =     12.04046  eV     1   --> A              
     e( 57 - 57) =     13.11179  eV     1   --> A              
     e( 58 - 58) =     13.13057  eV     1   --> A              
     e( 59 - 59) =     13.17790  eV     1   --> A              
     e( 60 - 60) =     13.28039  eV     1   --> A              
     e( 61 - 61) =     13.39256  eV     1   --> A              
     e( 62 - 62) =     13.51793  eV     1   --> A              
     e( 63 - 63) =     13.52799  eV     1   --> A              
     e( 64 - 64) =     13.53388  eV     1   --> A              
     e( 65 - 65) =     14.34288  eV     1   --> A              
     e( 66 - 66) =     14.34681  eV     1   --> A              
     e( 67 - 67) =     14.38204  eV     1   --> A              
     e( 68 - 68) =     14.45591  eV     1   --> A              
     e( 69 - 69) =     14.54225  eV     1   --> A              
     e( 70 - 70) =     14.55938  eV     1   --> A              
     e( 71 - 71) =     14.57968  eV     1   --> A              
     e( 72 - 72) =     14.60201  eV     1   --> A              
     e( 73 - 73) =     14.62328  eV     1   --> A              
     e( 74 - 74) =     14.68501  eV     1   --> A              
     e( 75 - 75) =     14.69369  eV     1   --> A              
     e( 76 - 76) =     14.75174  eV     1   --> A              
     e( 77 - 77) =     14.95955  eV     1   --> A              
     e( 78 - 78) =     15.08380  eV     1   --> A              
     e( 79 - 79) =     15.11121  eV     1   --> A              
     e( 80 - 80) =     15.19498  eV     1   --> A              
     e( 81 - 81) =     15.24101  eV     1   --> A              
     e( 82 - 82) =     15.24792  eV     1   --> A              
     e( 83 - 83) =     15.31027  eV     1   --> A              
     e( 84 - 84) =     15.31898  eV     1   --> A              
     e( 85 - 85) =     15.67401  eV     1   --> A              
     e( 86 - 86) =     15.68210  eV     1   --> A              
     e( 87 - 87) =     15.68695  eV     1   --> A              
     e( 88 - 88) =     15.70581  eV     1   --> A              
     e( 89 - 89) =     15.73884  eV     1   --> A              
     e( 90 - 90) =     15.77345  eV     1   --> A              
     e( 91 - 91) =     15.87028  eV     1   --> A              
     e( 92 - 92) =     15.92009  eV     1   --> A              
     e( 93 - 93) =     15.95742  eV     1   --> A              
     e( 94 - 94) =     16.00907  eV     1   --> A              
     e( 95 - 95) =     16.09533  eV     1   --> A              
     e( 96 - 96) =     16.10004  eV     1   --> A              
     e( 97 - 97) =     17.52369  eV     1   --> A              
     e( 98 - 98) =     17.54879  eV     1   --> A              
     e( 99 - 99) =     17.55137  eV     1   --> A              
     e(100 -100) =     17.57763  eV     1   --> A              
     e(101 -101) =     17.61662  eV     1   --> A              
     e(102 -102) =     17.64344  eV     1   --> A              
     e(103 -103) =     17.65837  eV     1   --> A              
     e(104 -104) =     17.67387  eV     1   --> A              
     e(105 -105) =     17.95733  eV     1   --> A              
     e(106 -106) =     17.96686  eV     1   --> A              
     e(107 -107) =     17.98218  eV     1   --> A              
     e(108 -108) =     18.02160  eV     1   --> A              
     e(109 -109) =     18.04635  eV     1   --> A              
     e(110 -110) =     18.05675  eV     1   --> A              
     e(111 -111) =     18.06577  eV     1   --> A              
     e(112 -112) =     18.09819  eV     1   --> A              
     e(113 -113) =     18.40323  eV     1   --> A              
     e(114 -114) =     18.45257  eV     1   --> A              
     e(115 -115) =     18.60832  eV     1   --> A              
     e(116 -116) =     18.89718  eV     1   --> A              
     e(117 -117) =     20.43887  eV     1   --> A              
     e(118 -118) =     20.64157  eV     1   --> A              
     e(119 -119) =     20.75358  eV     1   --> A              
     e(120 -120) =     20.78157  eV     1   --> A              
     e(121 -121) =     20.97683  eV     1   --> A              
     e(122 -122) =     21.14617  eV     1   --> A              
     e(123 -123) =     21.67351  eV     1   --> A              
     e(124 -124) =     22.23152  eV     1   --> A              

 **************************************************************************

 **************************************************************************

                    xk=(   0.35000,   0.32500,   0.52500  )

     Band symmetry, C_1 (1)     point group:

     e(  1 -  1) =    -69.82084  eV     1   --> A              
     e(  2 -  2) =    -69.82041  eV     1   --> A              
     e(  3 -  3) =    -69.81842  eV     1   --> A              
     e(  4 -  5) =    -69.81805  eV     2   -->   2 A              
     e(  6 -  6) =    -69.81768  eV     1   --> A              
     e(  7 -  7) =    -69.81575  eV     1   --> A              
     e(  8 -  8) =    -69.81532  eV     1   --> A              
     e(  9 - 11) =    -47.89014  eV     3   -->   3 A              
     e( 12 - 12) =    -47.83147  eV     1   --> A              
     e( 13 - 13) =    -35.93266  eV     1   --> A              
     e( 14 - 14) =    -35.93242  eV     1   --> A              
     e( 15 - 15) =    -35.92978  eV     1   --> A              
     e( 16 - 16) =    -35.92920  eV     1   --> A              
     e( 17 - 18) =    -35.92910  eV     2   -->   2 A              
     e( 19 - 19) =    -35.92736  eV     1   --> A              
     e( 20 - 20) =    -35.92669  eV     1   --> A              
     e( 21 - 21) =    -35.91851  eV     1   --> A              
     e( 22 - 22) =    -35.91647  eV     1   --> A              
     e( 23 - 23) =    -35.91614  eV     1   --> A              
     e( 24 - 24) =    -35.91413  eV     1   --> A              
     e( 25 - 25) =    -35.91227  eV     1   --> A              
     e( 26 - 26) =    -35.91089  eV     1   --> A              
     e( 27 - 27) =    -35.91049  eV     1   --> A              
     e( 28 - 28) =    -35.90767  eV     1   --> A              
     e( 29 - 29) =    -35.90026  eV     1   --> A              
     e( 30 - 30) =    -35.89978  eV     1   --> A              
     e( 31 - 31) =    -35.89780  eV     1   --> A              
     e( 32 - 32) =    -35.89732  eV     1   --> A              
     e( 33 - 33) =    -35.89703  eV     1   --> A              
     e( 34 - 34) =    -35.89666  eV     1   --> A              
     e( 35 - 35) =    -35.89505  eV     1   --> A              
     e( 36 - 36) =    -35.89458  eV     1   --> A              
     e( 37 - 37) =    -21.72756  eV     1   --> A              
     e( 38 - 38) =    -21.72440  eV     1   --> A              
     e( 39 - 40) =    -21.72365  eV     2   -->   2 A              
     e( 41 - 41) =    -21.71967  eV     1   --> A              
     e( 42 - 42) =    -21.71881  eV     1   --> A              
     e( 43 - 43) =    -21.71826  eV     1   --> A              
     e( 44 - 44) =    -21.71790  eV     1   --> A              
     e( 45 - 45) =    -21.71742  eV     1   --> A              
     e( 46 - 48) =    -21.66411  eV     3   -->   3 A              
     e( 49 - 49) =      9.24892  eV     1   --> A              
     e( 50 - 50) =      9.43882  eV     1   --> A              
     e( 51 - 51) =     10.12806  eV     1   --> A              
     e( 52 - 52) =     10.15850  eV     1   --> A              
     e( 53 - 53) =     11.22480  eV     1   --> A              
     e( 54 - 54) =     11.25034  eV     1   --> A              
     e( 55 - 55) =     11.80103  eV     1   --> A              
     e( 56 - 56) =     11.95619  eV     1   --> A              
     e( 57 - 57) =     13.11496  eV     1   --> A              
     e( 58 - 58) =     13.12319  eV     1   --> A              
     e( 59 - 59) =     13.20963  eV     1   --> A              
     e( 60 - 60) =     13.25073  eV     1   --> A              
     e( 61 - 61) =     13.43790  eV     1   --> A              
     e( 62 - 62) =     13.49187  eV     1   --> A              
     e( 63 - 63) =     13.52427  eV     1   --> A              
     e( 64 - 64) =     13.53100  eV     1   --> A              
     e( 65 - 65) =     14.33970  eV     1   --> A              
     e( 66 - 66) =     14.34174  eV     1   --> A              
     e( 67 - 67) =     14.41015  eV     1   --> A              
     e( 68 - 68) =     14.44269  eV     1   --> A              
     e( 69 - 69) =     14.52931  eV     1   --> A              
     e( 70 - 70) =     14.53697  eV     1   --> A              
     e( 71 - 71) =     14.62365  eV     1   --> A              
     e( 72 - 72) =     14.63050  eV     1   --> A              
     e( 73 - 73) =     14.65144  eV     1   --> A              
     e( 74 - 74) =     14.66571  eV     1   --> A              
     e( 75 - 75) =     14.67761  eV     1   --> A              
     e( 76 - 76) =     14.70421  eV     1   --> A              
     e( 77 - 77) =     14.99265  eV     1   --> A              
     e( 78 - 78) =     15.04096  eV     1   --> A              
     e( 79 - 79) =     15.13345  eV     1   --> A              
     e( 80 - 80) =     15.18906  eV     1   --> A              
     e( 81 - 81) =     15.24504  eV     1   --> A              
     e( 82 - 82) =     15.25546  eV     1   --> A              
     e( 83 - 83) =     15.31641  eV     1   --> A              
     e( 84 - 84) =     15.31682  eV     1   --> A              
     e( 85 - 85) =     15.67444  eV     1   --> A              
     e( 86 - 86) =     15.67578  eV     1   --> A              
     e( 87 - 87) =     15.68308  eV     1   --> A              
     e( 88 - 88) =     15.68536  eV     1   --> A              
     e( 89 - 89) =     15.79046  eV     1   --> A              
     e( 90 - 90) =     15.81068  eV     1   --> A              
     e( 91 - 91) =     15.84826  eV     1   --> A              
     e( 92 - 92) =     15.87027  eV     1   --> A              
     e( 93 - 93) =     15.95809  eV     1   --> A              
     e( 94 - 94) =     15.96744  eV     1   --> A              
     e( 95 - 95) =     16.11196  eV     1   --> A              
     e( 96 - 96) =     16.11378  eV     1   --> A              
     e( 97 - 97) =     17.52418  eV     1   --> A              
     e( 98 - 98) =     17.53692  eV     1   --> A              
     e( 99 - 99) =     17.57171  eV     1   --> A              
     e(100 -100) =     17.58102  eV     1   --> A              
     e(101 -101) =     17.61565  eV     1   --> A              
     e(102 -102) =     17.62332  eV     1   --> A              
     e(103 -103) =     17.66635  eV     1   --> A              
     e(104 -104) =     17.67667  eV     1   --> A              
     e(105 -105) =     17.96655  eV     1   --> A              
     e(106 -106) =     17.97132  eV     1   --> A              
     e(107 -107) =     17.98956  eV     1   --> A              
     e(108 -108) =     18.01231  eV     1   --> A              
     e(109 -109) =     18.04291  eV     1   --> A              
     e(110 -110) =     18.04779  eV     1   --> A              
     e(111 -111) =     18.07493  eV     1   --> A              
     e(112 -112) =     18.09424  eV     1   --> A              
     e(113 -113) =     18.40616  eV     1   --> A              
     e(114 -114) =     18.41397  eV     1   --> A              
     e(115 -115) =     18.70817  eV     1   --> A              
     e(116 -116) =     18.82953  eV     1   --> A              
     e(117 -117) =     20.52165  eV     1   --> A              
     e(118 -118) =     20.57429  eV     1   --> A              
     e(119 -119) =     20.66852  eV     1   --> A              
     e(120 -120) =     20.69519  eV     1   --> A              
     e(121 -121) =     21.22191  eV     1   --> A              
     e(122 -122) =     21.44989  eV     1   --> A              
     e(123 -123) =     21.52038  eV     1   --> A              
     e(124 -124) =     21.89248  eV     1   --> A              

 **************************************************************************

 **************************************************************************

                    xk=(   0.32500,   0.33750,   0.48750  )

     Band symmetry, C_1 (1)     point group:

     e(  1 -  1) =    -69.82082  eV     1   --> A              
     e(  2 -  2) =    -69.82059  eV     1   --> A              
     e(  3 -  3) =    -69.81824  eV     1   --> A              
     e(  4 -  5) =    -69.81806  eV     2   -->   2 A              
     e(  6 -  6) =    -69.81786  eV     1   --> A              
     e(  7 -  7) =    -69.81555  eV     1   --> A              
     e(  8 -  8) =    -69.81534  eV     1   --> A              
     e(  9 - 11) =    -47.89015  eV     3   -->   3 A              
     e( 12 - 12) =    -47.83147  eV     1   --> A              
     e( 13 - 13) =    -35.93305  eV     1   --> A              
     e( 14 - 14) =    -35.93288  eV     1   --> A              
     e( 15 - 15) =    -35.93002  eV     1   --> A              
     e( 16 - 16) =    -35.92985  eV     1   --> A              
     e( 17 - 17) =    -35.92949  eV     1   --> A              
     e( 18 - 18) =    -35.92918  eV     1   --> A              
     e( 19 - 19) =    -35.92830  eV     1   --> A              
     e( 20 - 20) =    -35.92794  eV     1   --> A              
     e( 21 - 21) =    -35.91733  eV     1   --> A              
     e( 22 - 22) =    -35.91526  eV     1   --> A              
     e( 23 - 24) =    -35.91506  eV     2   -->   2 A              
     e( 25 - 25) =    -35.91200  eV     1   --> A              
     e( 26 - 26) =    -35.91185  eV     1   --> A              
     e( 27 - 27) =    -35.91132  eV     1   --> A              
     e( 28 - 28) =    -35.90881  eV     1   --> A              
     e( 29 - 29) =    -35.89902  eV     1   --> A              
     e( 30 - 30) =    -35.89874  eV     1   --> A              
     e( 31 - 31) =    -35.89777  eV     1   --> A              
     e( 32 - 32) =    -35.89753  eV     1   --> A              
     e( 33 - 33) =    -35.89589  eV     1   --> A              
     e( 34 - 34) =    -35.89566  eV     1   --> A              
     e( 35 - 35) =    -35.89482  eV     1   --> A              
     e( 36 - 36) =    -35.89464  eV     1   --> A              
     e( 37 - 37) =    -21.72750  eV     1   --> A              
     e( 38 - 38) =    -21.72439  eV     1   --> A              
     e( 39 - 40) =    -21.72360  eV     2   -->   2 A              
     e( 41 - 41) =    -21.71977  eV     1   --> A              
     e( 42 - 42) =    -21.71881  eV     1   --> A              
     e( 43 - 43) =    -21.71833  eV     1   --> A              
     e( 44 - 44) =    -21.71790  eV     1   --> A              
     e( 45 - 45) =    -21.71742  eV     1   --> A              
     e( 46 - 48) =    -21.66412  eV     3   -->   3 A              
     e( 49 - 49) =      9.26154  eV     1   --> A              
     e( 50 - 50) =      9.35765  eV     1   --> A              
     e( 51 - 51) =     10.15494  eV     1   --> A              
     e( 52 - 52) =     10.16620  eV     1   --> A              
     e( 53 - 53) =     11.23695  eV     1   --> A              
     e( 54 - 54) =     11.24631  eV     1   --> A              
     e( 55 - 55) =     11.87823  eV     1   --> A              
     e( 56 - 56) =     11.95652  eV     1   --> A              
     e( 57 - 57) =     13.09916  eV     1   --> A              
     e( 58 - 58) =     13.10694  eV     1   --> A              
     e( 59 - 59) =     13.21426  eV     1   --> A              
     e( 60 - 60) =     13.23607  eV     1   --> A              
     e( 61 - 61) =     13.45766  eV     1   --> A              
     e( 62 - 62) =     13.48680  eV     1   --> A              
     e( 63 - 63) =     13.53322  eV     1   --> A              
     e( 64 - 64) =     13.54004  eV     1   --> A              
     e( 65 - 65) =     14.32444  eV     1   --> A              
     e( 66 - 66) =     14.32634  eV     1   --> A              
     e( 67 - 67) =     14.40737  eV     1   --> A              
     e( 68 - 68) =     14.42486  eV     1   --> A              
     e( 69 - 69) =     14.52193  eV     1   --> A              
     e( 70 - 70) =     14.52826  eV     1   --> A              
     e( 71 - 71) =     14.63864  eV     1   --> A              
     e( 72 - 72) =     14.64744  eV     1   --> A              
     e( 73 - 73) =     14.65945  eV     1   --> A              
     e( 74 - 74) =     14.66246  eV     1   --> A              
     e( 75 - 75) =     14.67395  eV     1   --> A              
     e( 76 - 76) =     14.68939  eV     1   --> A              
     e( 77 - 77) =     14.99902  eV     1   --> A              
     e( 78 - 78) =     15.02268  eV     1   --> A              
     e( 79 - 79) =     15.14859  eV     1   --> A              
     e( 80 - 80) =     15.17722  eV     1   --> A              
     e( 81 - 81) =     15.26499  eV     1   --> A              
     e( 82 - 82) =     15.26823  eV     1   --> A              
     e( 83 - 83) =     15.32196  eV     1   --> A              
     e( 84 - 84) =     15.32273  eV     1   --> A              
     e( 85 - 85) =     15.66966  eV     1   --> A              
     e( 86 - 86) =     15.67014  eV     1   --> A              
     e( 87 - 87) =     15.67889  eV     1   --> A              
     e( 88 - 88) =     15.67937  eV     1   --> A              
     e( 89 - 89) =     15.81303  eV     1   --> A              
     e( 90 - 90) =     15.82753  eV     1   --> A              
     e( 91 - 91) =     15.84299  eV     1   --> A              
     e( 92 - 92) =     15.85771  eV     1   --> A              
     e( 93 - 93) =     15.96574  eV     1   --> A              
     e( 94 - 94) =     15.96814  eV     1   --> A              
     e( 95 - 95) =     16.12864  eV     1   --> A              
     e( 96 - 96) =     16.13031  eV     1   --> A              
     e( 97 - 97) =     17.52277  eV     1   --> A              
     e( 98 - 98) =     17.52950  eV     1   --> A              
     e( 99 - 99) =     17.57455  eV     1   --> A              
     e(100 -100) =     17.58191  eV     1   --> A              
     e(101 -101) =     17.61603  eV     1   --> A              
     e(102 -102) =     17.62028  eV     1   --> A              
     e(103 -103) =     17.67320  eV     1   --> A              
     e(104 -104) =     17.68094  eV     1   --> A              
     e(105 -105) =     17.96049  eV     1   --> A              
     e(106 -106) =     17.96502  eV     1   --> A              
     e(107 -107) =     17.98387  eV     1   --> A              
     e(108 -108) =     18.00190  eV     1   --> A              
     e(109 -109) =     18.03740  eV     1   --> A              
     e(110 -110) =     18.04077  eV     1   --> A              
     e(111 -111) =     18.07484  eV     1   --> A              
     e(112 -112) =     18.09053  eV     1   --> A              
     e(113 -113) =     18.40390  eV     1   --> A              
     e(114 -114) =     18.40628  eV     1   --> A              
     e(115 -115) =     18.76034  eV     1   --> A              
     e(116 -116) =     18.82370  eV     1   --> A              
     e(117 -117) =     20.48769  eV     1   --> A              
     e(118 -118) =     20.50495  eV     1   --> A              
     e(119 -119) =     20.59914  eV     1   --> A              
     e(120 -120) =     20.60915  eV     1   --> A              
     e(121 -121) =     21.27323  eV     1   --> A              
     e(122 -122) =     21.42472  eV     1   --> A              
     e(123 -123) =     21.53256  eV     1   --> A              
     e(124 -124) =     21.75467  eV     1   --> A              

 **************************************************************************

 **************************************************************************

                    xk=(   0.30000,   0.35000,   0.45000  )

     Band symmetry, C_1 (1)     point group:

     e(  1 -  1) =    -69.82121  eV     1   --> A              
     e(  2 -  2) =    -69.82037  eV     1   --> A              
     e(  3 -  3) =    -69.81879  eV     1   --> A              
     e(  4 -  5) =    -69.81811  eV     2   -->   2 A              
     e(  6 -  6) =    -69.81730  eV     1   --> A              
     e(  7 -  7) =    -69.81578  eV     1   --> A              
     e(  8 -  8) =    -69.81496  eV     1   --> A              
     e(  9 - 10) =    -47.89015  eV     2   -->   2 A              
     e( 11 - 11) =    -47.88995  eV     1   --> A              
     e( 12 - 12) =    -47.83147  eV     1   --> A              
     e( 13 - 13) =    -35.93481  eV     1   --> A              
     e( 14 - 14) =    -35.93419  eV     1   --> A              
     e( 15 - 15) =    -35.93220  eV     1   --> A              
     e( 16 - 16) =    -35.93108  eV     1   --> A              
     e( 17 - 17) =    -35.92973  eV     1   --> A              
     e( 18 - 18) =    -35.92940  eV     1   --> A              
     e( 19 - 19) =    -35.92749  eV     1   --> A              
     e( 20 - 20) =    -35.92622  eV     1   --> A              
     e( 21 - 21) =    -35.92108  eV     1   --> A              
     e( 22 - 22) =    -35.91922  eV     1   --> A              
     e( 23 - 23) =    -35.91848  eV     1   --> A              
     e( 24 - 24) =    -35.91540  eV     1   --> A              
     e( 25 - 25) =    -35.91108  eV     1   --> A              
     e( 26 - 26) =    -35.90866  eV     1   --> A              
     e( 27 - 27) =    -35.90792  eV     1   --> A              
     e( 28 - 28) =    -35.90490  eV     1   --> A              
     e( 29 - 29) =    -35.90063  eV     1   --> A              
     e( 30 - 30) =    -35.89974  eV     1   --> A              
     e( 31 - 31) =    -35.89717  eV     1   --> A              
     e( 32 - 32) =    -35.89619  eV     1   --> A              
     e( 33 - 33) =    -35.89585  eV     1   --> A              
     e( 34 - 34) =    -35.89494  eV     1   --> A              
     e( 35 - 35) =    -35.89309  eV     1   --> A              
     e( 36 - 36) =    -35.89218  eV     1   --> A              
     e( 37 - 37) =    -21.72739  eV     1   --> A              
     e( 38 - 38) =    -21.72433  eV     1   --> A              
     e( 39 - 40) =    -21.72351  eV     2   -->   2 A              
     e( 41 - 41) =    -21.71988  eV     1   --> A              
     e( 42 - 42) =    -21.71897  eV     1   --> A              
     e( 43 - 43) =    -21.71831  eV     1   --> A              
     e( 44 - 44) =    -21.71796  eV     1   --> A              
     e( 45 - 45) =    -21.71742  eV     1   --> A              
     e( 46 - 48) =    -21.66413  eV     3   -->   3 A              
     e( 49 - 49) =      9.09369  eV     1   --> A              
     e( 50 - 50) =      9.47763  eV     1   --> A              
     e( 51 - 51) =     10.07246  eV     1   --> A              
     e( 52 - 52) =     10.17856  eV     1   --> A              
     e( 53 - 53) =     11.26845  eV     1   --> A              
     e( 54 - 54) =     11.35452  eV     1   --> A              
     e( 55 - 55) =     11.81137  eV     1   --> A              
     e( 56 - 56) =     12.12084  eV     1   --> A              
     e( 57 - 57) =     13.06684  eV     1   --> A              
     e( 58 - 58) =     13.08183  eV     1   --> A              
     e( 59 - 59) =     13.17203  eV     1   --> A              
     e( 60 - 60) =     13.25604  eV     1   --> A              
     e( 61 - 61) =     13.42035  eV     1   --> A              
     e( 62 - 62) =     13.53238  eV     1   --> A              
     e( 63 - 63) =     13.55506  eV     1   --> A              
     e( 64 - 64) =     13.56134  eV     1   --> A              
     e( 65 - 65) =     14.29908  eV     1   --> A              
     e( 66 - 66) =     14.30196  eV     1   --> A              
     e( 67 - 67) =     14.35764  eV     1   --> A              
     e( 68 - 68) =     14.42340  eV     1   --> A              
     e( 69 - 69) =     14.52025  eV     1   --> A              
     e( 70 - 70) =     14.53751  eV     1   --> A              
     e( 71 - 71) =     14.59593  eV     1   --> A              
     e( 72 - 72) =     14.61222  eV     1   --> A              
     e( 73 - 73) =     14.64120  eV     1   --> A              
     e( 74 - 74) =     14.69050  eV     1   --> A              
     e( 75 - 75) =     14.69936  eV     1   --> A              
     e( 76 - 76) =     14.75323  eV     1   --> A              
     e( 77 - 77) =     14.95450  eV     1   --> A              
     e( 78 - 78) =     15.04749  eV     1   --> A              
     e( 79 - 79) =     15.12530  eV     1   --> A              
     e( 80 - 80) =     15.23483  eV     1   --> A              
     e( 81 - 81) =     15.23707  eV     1   --> A              
     e( 82 - 82) =     15.28180  eV     1   --> A              
     e( 83 - 83) =     15.33360  eV     1   --> A              
     e( 84 - 84) =     15.34255  eV     1   --> A              
     e( 85 - 85) =     15.65891  eV     1   --> A              
     e( 86 - 86) =     15.66541  eV     1   --> A              
     e( 87 - 87) =     15.67919  eV     1   --> A              
     e( 88 - 88) =     15.68822  eV     1   --> A              
     e( 89 - 89) =     15.76534  eV     1   --> A              
     e( 90 - 90) =     15.79892  eV     1   --> A              
     e( 91 - 91) =     15.88075  eV     1   --> A              
     e( 92 - 92) =     15.92433  eV     1   --> A              
     e( 93 - 93) =     15.97879  eV     1   --> A              
     e( 94 - 94) =     16.01344  eV     1   --> A              
     e( 95 - 95) =     16.14303  eV     1   --> A              
     e( 96 - 96) =     16.14790  eV     1   --> A              
     e( 97 - 97) =     17.51128  eV     1   --> A              
     e( 98 - 98) =     17.53538  eV     1   --> A              
     e( 99 - 99) =     17.55589  eV     1   --> A              
     e(100 -100) =     17.57489  eV     1   --> A              
     e(101 -101) =     17.61976  eV     1   --> A              
     e(102 -102) =     17.63932  eV     1   --> A              
     e(103 -103) =     17.67465  eV     1   --> A              
     e(104 -104) =     17.68906  eV     1   --> A              
     e(105 -105) =     17.93790  eV     1   --> A              
     e(106 -106) =     17.94530  eV     1   --> A              
     e(107 -107) =     17.96041  eV     1   --> A              
     e(108 -108) =     17.99909  eV     1   --> A              
     e(109 -109) =     18.03133  eV     1   --> A              
     e(110 -110) =     18.04254  eV     1   --> A              
     e(111 -111) =     18.06057  eV     1   --> A              
     e(112 -112) =     18.09050  eV     1   --> A              
     e(113 -113) =     18.39652  eV     1   --> A              
     e(114 -114) =     18.42710  eV     1   --> A              
     e(115 -115) =     18.69148  eV     1   --> A              
     e(116 -116) =     18.95305  eV     1   --> A              
     e(117 -117) =     20.29347  eV     1   --> A              
     e(118 -118) =     20.43294  eV     1   --> A              
     e(119 -119) =     20.54713  eV     1   --> A              
     e(120 -120) =     20.58998  eV     1   --> A              
     e(121 -121) =     20.97246  eV     1   --> A              
     e(122 -122) =     21.17072  eV     1   --> A              
     e(123 -123) =     21.55986  eV     1   --> A              
     e(124 -124) =     22.05343  eV     1   --> A              

 **************************************************************************

 **************************************************************************

                    xk=(   0.27500,   0.36250,   0.41250  )

     Band symmetry, C_1 (1)     point group:

     e(  1 -  1) =    -69.82159  eV     1   --> A              
     e(  2 -  2) =    -69.82011  eV     1   --> A              
     e(  3 -  3) =    -69.81934  eV     1   --> A              
     e(  4 -  4) =    -69.81815  eV     1   --> A              
     e(  5 -  5) =    -69.81796  eV     1   --> A              
     e(  6 -  6) =    -69.81676  eV     1   --> A              
     e(  7 -  7) =    -69.81603  eV     1   --> A              
     e(  8 -  8) =    -69.81458  eV     1   --> A              
     e(  9 - 10) =    -47.89016  eV     2   -->   2 A              
     e( 11 - 11) =    -47.88992  eV     1   --> A              
     e( 12 - 12) =    -47.83147  eV     1   --> A              
     e( 13 - 13) =    -35.93685  eV     1   --> A              
     e( 14 - 14) =    -35.93578  eV     1   --> A              
     e( 15 - 15) =    -35.93480  eV     1   --> A              
     e( 16 - 16) =    -35.93271  eV     1   --> A              
     e( 17 - 17) =    -35.92920  eV     1   --> A              
     e( 18 - 18) =    -35.92843  eV     1   --> A              
     e( 19 - 19) =    -35.92684  eV     1   --> A              
     e( 20 - 21) =    -35.92449  eV     2   -->   2 A              
     e( 22 - 22) =    -35.92313  eV     1   --> A              
     e( 23 - 23) =    -35.92190  eV     1   --> A              
     e( 24 - 24) =    -35.91897  eV     1   --> A              
     e( 25 - 25) =    -35.90765  eV     1   --> A              
     e( 26 - 26) =    -35.90514  eV     1   --> A              
     e( 27 - 27) =    -35.90387  eV     1   --> A              
     e( 28 - 28) =    -35.90217  eV     1   --> A              
     e( 29 - 29) =    -35.90122  eV     1   --> A              
     e( 30 - 30) =    -35.90067  eV     1   --> A              
     e( 31 - 31) =    -35.89845  eV     1   --> A              
     e( 32 - 32) =    -35.89681  eV     1   --> A              
     e( 33 - 33) =    -35.89413  eV     1   --> A              
     e( 34 - 34) =    -35.89240  eV     1   --> A              
     e( 35 - 35) =    -35.89151  eV     1   --> A              
     e( 36 - 36) =    -35.88982  eV     1   --> A              
     e( 37 - 37) =    -21.72724  eV     1   --> A              
     e( 38 - 38) =    -21.72422  eV     1   --> A              
     e( 39 - 40) =    -21.72340  eV     2   -->   2 A              
     e( 41 - 41) =    -21.72005  eV     1   --> A              
     e( 42 - 42) =    -21.71922  eV     1   --> A              
     e( 43 - 43) =    -21.71826  eV     1   --> A              
     e( 44 - 44) =    -21.71805  eV     1   --> A              
     e( 45 - 45) =    -21.71740  eV     1   --> A              
     e( 46 - 46) =    -21.66415  eV     1   --> A              
     e( 47 - 48) =    -21.66404  eV     2   -->   2 A              
     e( 49 - 49) =      8.93781  eV     1   --> A              
     e( 50 - 50) =      9.60702  eV     1   --> A              
     e( 51 - 51) =      9.92132  eV     1   --> A              
     e( 52 - 52) =     10.20024  eV     1   --> A              
     e( 53 - 53) =     11.31477  eV     1   --> A              
     e( 54 - 54) =     11.52930  eV     1   --> A              
     e( 55 - 55) =     11.75855  eV     1   --> A              
     e( 56 - 56) =     12.28694  eV     1   --> A              
     e( 57 - 57) =     13.01444  eV     1   --> A              
     e( 58 - 58) =     13.05974  eV     1   --> A              
     e( 59 - 59) =     13.11787  eV     1   --> A              
     e( 60 - 60) =     13.26635  eV     1   --> A              
     e( 61 - 61) =     13.39057  eV     1   --> A              
     e( 62 - 62) =     13.57798  eV     1   --> A              
     e( 63 - 63) =     13.58754  eV     1   --> A              
     e( 64 - 64) =     13.59396  eV     1   --> A              
     e( 65 - 65) =     14.25969  eV     1   --> A              
     e( 66 - 66) =     14.27156  eV     1   --> A              
[...]
     e( 77 - 77) =     14.87757  eV     1   --> A              
     e( 78 - 78) =     15.07325  eV     1   --> A              
     e( 79 - 79) =     15.12204  eV     1   --> A              
     e( 80 - 80) =     15.12667  eV     1   --> A              
     e( 81 - 81) =     15.33224  eV     1   --> A              
     e( 82 - 82) =     15.34814  eV     1   --> A              
     e( 83 - 83) =     15.35823  eV     1   --> A              
     e( 84 - 84) =     15.38839  eV     1   --> A              
     e( 85 - 85) =     15.62143  eV     1   --> A              
     e( 86 - 86) =     15.67017  eV     1   --> A              
     e( 87 - 87) =     15.69396  eV     1   --> A              
     e( 88 - 88) =     15.69974  eV     1   --> A              
     e( 89 - 89) =     15.73201  eV     1   --> A              
     e( 90 - 90) =     15.76257  eV     1   --> A              
     e( 91 - 91) =     15.95063  eV     1   --> A              
     e( 92 - 92) =     16.01990  eV     1   --> A              
     e( 93 - 93) =     16.04199  eV     1   --> A              
     e( 94 - 94) =     16.15219  eV     1   --> A              
     e( 95 - 95) =     16.19103  eV     1   --> A              
     e( 96 - 96) =     16.19568  eV     1   --> A              
     e( 97 - 97) =     17.49482  eV     1   --> A              
     e( 98 - 98) =     17.50866  eV     1   --> A              
     e( 99 - 99) =     17.52609  eV     1   --> A              
     e(100 -100) =     17.55260  eV     1   --> A              
     e(101 -101) =     17.62479  eV     1   --> A              
     e(102 -102) =     17.67565  eV     1   --> A              
     e(103 -103) =     17.69014  eV     1   --> A              
     e(104 -104) =     17.69939  eV     1   --> A              
     e(105 -105) =     17.87167  eV     1   --> A              
     e(106 -106) =     17.88586  eV     1   --> A              
     e(107 -107) =     17.90278  eV     1   --> A              
     e(108 -108) =     17.97670  eV     1   --> A              
     e(109 -109) =     18.00931  eV     1   --> A              
     e(110 -110) =     18.01763  eV     1   --> A              
     e(111 -111) =     18.04878  eV     1   --> A              
     e(112 -112) =     18.07786  eV     1   --> A              
     e(113 -113) =     18.37171  eV     1   --> A              
     e(114 -114) =     18.52292  eV     1   --> A              
     e(115 -115) =     18.60339  eV     1   --> A              
     e(116 -116) =     19.24756  eV     1   --> A              
     e(117 -117) =     19.84216  eV     1   --> A              
     e(118 -118) =     20.23730  eV     1   --> A              
     e(119 -119) =     20.33664  eV     1   --> A              
     e(120 -120) =     20.37939  eV     1   --> A              
     e(121 -121) =     20.40305  eV     1   --> A              
     e(122 -122) =     20.55589  eV     1   --> A              
     e(123 -123) =     21.58308  eV     1   --> A              
     e(124 -124) =     22.48726  eV     1   --> A              

 **************************************************************************

 **************************************************************************

                    xk=(   0.75000,   0.38125,   0.36875  )

     Band symmetry, C_1 (1)     point group:

     e(  1 -  1) =    -69.82194  eV     1   --> A              
     e(  2 -  2) =    -69.81997  eV     1   --> A              
     e(  3 -  3) =    -69.81978  eV     1   --> A              
     e(  4 -  4) =    -69.81820  eV     1   --> A              
     e(  5 -  5) =    -69.81793  eV     1   --> A              
     e(  6 -  6) =    -69.81634  eV     1   --> A              
     e(  7 -  7) =    -69.81615  eV     1   --> A              
     e(  8 -  8) =    -69.81424  eV     1   --> A              
     e(  9 - 10) =    -47.89017  eV     2   -->   2 A              
     e( 11 - 11) =    -47.88989  eV     1   --> A              
     e( 12 - 12) =    -47.83147  eV     1   --> A              
     e( 13 - 13) =    -35.93886  eV     1   --> A              
     e( 14 - 14) =    -35.93736  eV     1   --> A              
     e( 15 - 15) =    -35.93709  eV     1   --> A              
     e( 16 - 16) =    -35.93438  eV     1   --> A              
     e( 17 - 17) =    -35.92910  eV     1   --> A              
     e( 18 - 18) =    -35.92834  eV     1   --> A              
     e( 19 - 19) =    -35.92820  eV     1   --> A              
     e( 20 - 20) =    -35.92605  eV     1   --> A              
     e( 21 - 21) =    -35.92571  eV     1   --> A              
     e( 22 - 22) =    -35.92476  eV     1   --> A              
     e( 23 - 23) =    -35.92337  eV     1   --> A              
     e( 24 - 24) =    -35.92176  eV     1   --> A              
     e( 25 - 25) =    -35.90503  eV     1   --> A              
     e( 26 - 26) =    -35.90290  eV     1   --> A              
     e( 27 - 27) =    -35.90230  eV     1   --> A              
     e( 28 - 28) =    -35.90118  eV     1   --> A              
     e( 29 - 29) =    -35.90080  eV     1   --> A              
     e( 30 - 30) =    -35.89902  eV     1   --> A              
     e( 31 - 31) =    -35.89802  eV     1   --> A              
     e( 32 - 32) =    -35.89699  eV     1   --> A              
     e( 33 - 33) =    -35.89249  eV     1   --> A              
     e( 34 - 34) =    -35.89022  eV     1   --> A              
     e( 35 - 35) =    -35.89000  eV     1   --> A              
     e( 36 - 36) =    -35.88773  eV     1   --> A              
     e( 37 - 37) =    -21.72705  eV     1   --> A              
     e( 38 - 38) =    -21.72410  eV     1   --> A              
     e( 39 - 39) =    -21.72329  eV     1   --> A              
     e( 40 - 40) =    -21.72312  eV     1   --> A              
     e( 41 - 41) =    -21.72029  eV     1   --> A              
     e( 42 - 42) =    -21.71945  eV     1   --> A              
     e( 43 - 44) =    -21.71824  eV     2   -->   2 A              
     e( 45 - 45) =    -21.71740  eV     1   --> A              
     e( 46 - 46) =    -21.66418  eV     1   --> A              
     e( 47 - 48) =    -21.66404  eV     2   -->   2 A              
     e( 49 - 49) =      8.79656  eV     1   --> A              
     e( 50 - 50) =      9.70222  eV     1   --> A              
     e( 51 - 51) =      9.78285  eV     1   --> A              
     e( 52 - 52) =     10.22940  eV     1   --> A              
     e( 53 - 53) =     11.37666  eV     1   --> A              
     e( 54 - 54) =     11.69568  eV     1   --> A              
     e( 55 - 55) =     11.75034  eV     1   --> A              
     e( 56 - 56) =     12.44369  eV     1   --> A              
     e( 57 - 57) =     12.94551  eV     1   --> A              
     e( 58 - 58) =     13.03980  eV     1   --> A              
     e( 59 - 59) =     13.05882  eV     1   --> A              
     e( 60 - 60) =     13.25545  eV     1   --> A              
     e( 61 - 61) =     13.39194  eV     1   --> A              
     e( 62 - 62) =     13.62475  eV     1   --> A              
     e( 63 - 63) =     13.62728  eV     1   --> A              
     e( 64 - 64) =     13.63813  eV     1   --> A              
     e( 65 - 65) =     14.20512  eV     1   --> A              
     e( 66 - 66) =     14.23316  eV     1   --> A              
     e( 67 - 67) =     14.24095  eV     1   --> A              
     e( 68 - 68) =     14.38359  eV     1   --> A              
     e( 69 - 69) =     14.50351  eV     1   --> A              
     e( 70 - 70) =     14.54363  eV     1   --> A              
     e( 71 - 71) =     14.57128  eV     1   --> A              
     e( 72 - 72) =     14.58226  eV     1   --> A              
     e( 73 - 73) =     14.59732  eV     1   --> A              
     e( 74 - 74) =     14.74451  eV     1   --> A              
     e( 75 - 75) =     14.75291  eV     1   --> A              
     e( 76 - 76) =     14.86983  eV     1   --> A              
     e( 77 - 77) =     14.87635  eV     1   --> A              
     e( 78 - 78) =     15.08585  eV     1   --> A              
     e( 79 - 79) =     15.11225  eV     1   --> A              
     e( 80 - 80) =     15.12194  eV     1   --> A              
     e( 81 - 81) =     15.33078  eV     1   --> A              
     e( 82 - 82) =     15.34789  eV     1   --> A              
     e( 83 - 83) =     15.36585  eV     1   --> A              
     e( 84 - 84) =     15.38123  eV     1   --> A              
     e( 85 - 85) =     15.62184  eV     1   --> A              
     e( 86 - 86) =     15.67690  eV     1   --> A              
     e( 87 - 87) =     15.69167  eV     1   --> A              
     e( 88 - 88) =     15.69446  eV     1   --> A              
     e( 89 - 89) =     15.73937  eV     1   --> A              
     e( 90 - 90) =     15.75468  eV     1   --> A              
     e( 91 - 91) =     15.95090  eV     1   --> A              
     e( 92 - 92) =     16.01930  eV     1   --> A              
     e( 93 - 93) =     16.04363  eV     1   --> A              
     e( 94 - 94) =     16.16186  eV     1   --> A              
     e( 95 - 95) =     16.18136  eV     1   --> A              
     e( 96 - 96) =     16.19388  eV     1   --> A              
     e( 97 - 97) =     17.49799  eV     1   --> A              
     e( 98 - 98) =     17.50509  eV     1   --> A              
     e( 99 - 99) =     17.52679  eV     1   --> A              
     e(100 -100) =     17.55247  eV     1   --> A              
     e(101 -101) =     17.62474  eV     1   --> A              
     e(102 -102) =     17.67936  eV     1   --> A              
     e(103 -103) =     17.68676  eV     1   --> A              
     e(104 -104) =     17.69855  eV     1   --> A              
     e(105 -105) =     17.87166  eV     1   --> A              
     e(106 -106) =     17.88665  eV     1   --> A              
     e(107 -107) =     17.90276  eV     1   --> A              
     e(108 -108) =     17.97778  eV     1   --> A              
     e(109 -109) =     18.01133  eV     1   --> A              
     e(110 -110) =     18.01568  eV     1   --> A              
     e(111 -111) =     18.04983  eV     1   --> A              
     e(112 -112) =     18.07808  eV     1   --> A              
     e(113 -113) =     18.37160  eV     1   --> A              
     e(114 -114) =     18.54126  eV     1   --> A              
     e(115 -115) =     18.58161  eV     1   --> A              
     e(116 -116) =     19.24806  eV     1   --> A              
     e(117 -117) =     19.84325  eV     1   --> A              
     e(118 -118) =     20.27262  eV     1   --> A              
     e(119 -119) =     20.34140  eV     1   --> A              
     e(120 -120) =     20.34578  eV     1   --> A              
     e(121 -121) =     20.44081  eV     1   --> A              
     e(122 -122) =     20.51733  eV     1   --> A              
     e(123 -123) =     21.58838  eV     1   --> A              
     e(124 -124) =     22.53403  eV     1   --> A              

 **************************************************************************

 **************************************************************************

                    xk=(   0.75000,   0.37500,   0.37500  )

     point group C_s (m)    
     there are  2 classes
     the character table:

       E     s    
A'     1.00  1.00
A''    1.00 -1.00

     the symmetry operations in each class and the name of the first element:

     E        1
                                                                 
     s        2
                                                                 

     Band symmetry, C_s (m)     point group:

     e(  1 -  1) =    -69.82193  eV     1   --> A'             
     e(  2 -  3) =    -69.81988  eV     2   --> A'             
     e(  2 -  3) =    -69.81988  eV     2   --> A''            
     e(  4 -  4) =    -69.81819  eV     1   --> A'             
     e(  5 -  5) =    -69.81793  eV     1   --> A'             
     e(  6 -  7) =    -69.81625  eV     2   --> A'             
     e(  6 -  7) =    -69.81625  eV     2   --> A''            
     e(  8 -  8) =    -69.81424  eV     1   --> A'             
     e(  9 - 10) =    -47.89017  eV     2   --> A'             
     e(  9 - 10) =    -47.89017  eV     2   --> A''            
     e( 11 - 11) =    -47.88989  eV     1   --> A'             
     e( 12 - 12) =    -47.83147  eV     1   --> A'             
     e( 13 - 13) =    -35.93885  eV     1   --> A'             
     e( 14 - 15) =    -35.93724  eV     2   --> A'             
     e( 14 - 15) =    -35.93724  eV     2   --> A''            
     e( 16 - 16) =    -35.93438  eV     1   --> A'             
     e( 17 - 17) =    -35.92872  eV     1   --> A''            
     e( 18 - 18) =    -35.92855  eV     1   --> A'             
     e( 19 - 19) =    -35.92816  eV     1   --> A''            
     e( 20 - 20) =    -35.92623  eV     1   --> A'             
     e( 21 - 21) =    -35.92538  eV     1   --> A''            
     e( 22 - 22) =    -35.92521  eV     1   --> A'             
     e( 23 - 23) =    -35.92303  eV     1   --> A'             
     e( 24 - 24) =    -35.92210  eV     1   --> A''            
     e( 25 - 25) =    -35.90476  eV     1   --> A''            
     e( 26 - 26) =    -35.90307  eV     1   --> A'             
     e( 27 - 27) =    -35.90184  eV     1   --> A''            
     e( 28 - 28) =    -35.90167  eV     1   --> A'             
     e( 29 - 29) =    -35.90044  eV     1   --> A'             
     e( 30 - 30) =    -35.89933  eV     1   --> A''            
     e( 31 - 31) =    -35.89762  eV     1   --> A''            
     e( 32 - 32) =    -35.89745  eV     1   --> A'             
     e( 33 - 33) =    -35.89248  eV     1   --> A'             
     e( 34 - 35) =    -35.89014  eV     2   --> A'             
     e( 34 - 35) =    -35.89014  eV     2   --> A''            
     e( 36 - 36) =    -35.88773  eV     1   --> A'             
     e( 37 - 37) =    -21.72706  eV     1   --> A'             
     e( 38 - 38) =    -21.72409  eV     1   --> A'             
     e( 39 - 39) =    -21.72329  eV     1   --> A''            
     e( 40 - 40) =    -21.72313  eV     1   --> A'             
     e( 41 - 41) =    -21.72029  eV     1   --> A'             
     e( 42 - 42) =    -21.71945  eV     1   --> A''            
     e( 43 - 44) =    -21.71821  eV     2   --> A'             
     e( 43 - 44) =    -21.71821  eV     2   --> A''            
     e( 45 - 45) =    -21.71740  eV     1   --> A''            
     e( 46 - 46) =    -21.66419  eV     1   --> A'             
     e( 47 - 48) =    -21.66404  eV     2   --> A'             
     e( 47 - 48) =    -21.66404  eV     2   --> A''            
     e( 49 - 49) =      8.79624  eV     1   --> A'             
     e( 50 - 50) =      9.74028  eV     1   --> A'             
     e( 51 - 51) =      9.74526  eV     1   --> A''            
     e( 52 - 52) =     10.22926  eV     1   --> A'             
     e( 53 - 53) =     11.37637  eV     1   --> A'             
     e( 54 - 54) =     11.72040  eV     1   --> A''            
     e( 55 - 55) =     11.72484  eV     1   --> A'             
     e( 56 - 56) =     12.44405  eV     1   --> A'             
     e( 57 - 57) =     12.94579  eV     1   --> A'             
     e( 58 - 58) =     13.04775  eV     1   --> A'             
     e( 59 - 59) =     13.05097  eV     1   --> A''            
     e( 60 - 60) =     13.25557  eV     1   --> A''            
     e( 61 - 61) =     13.39128  eV     1   --> A'             
     e( 62 - 62) =     13.62590  eV     1   -->   ?
     e( 63 - 63) =     13.62603  eV     1   -->   ?
     e( 64 - 64) =     13.63796  eV     1   --> A''            
     e( 65 - 65) =     14.20546  eV     1   --> A'             
     e( 66 - 66) =     14.23569  eV     1   --> A''            
     e( 67 - 67) =     14.23876  eV     1   --> A'             
     e( 68 - 68) =     14.38393  eV     1   --> A'             
     e( 69 - 69) =     14.50399  eV     1   --> A'             
     e( 70 - 70) =     14.54312  eV     1   --> A''            
     e( 71 - 71) =     14.57111  eV     1   --> A''            
     e( 72 - 72) =     14.58930  eV     1   --> A'             
     e( 73 - 73) =     14.59021  eV     1   --> A''            
     e( 74 - 74) =     14.74466  eV     1   --> A''            
     e( 75 - 75) =     14.75298  eV     1   --> A'             
     e( 76 - 76) =     14.87040  eV     1   --> A'             
     e( 77 - 77) =     14.87595  eV     1   --> A''            
     e( 78 - 78) =     15.09848  eV     1   --> A''            
     e( 79 - 79) =     15.09928  eV     1   --> A'             
     e( 80 - 80) =     15.12164  eV     1   --> A'             
     e( 81 - 81) =     15.33029  eV     1   --> A''            
     e( 82 - 82) =     15.34781  eV     1   --> A'             
     e( 83 - 83) =     15.37197  eV     1   --> A''            
     e( 84 - 84) =     15.37522  eV     1   --> A'             
     e( 85 - 85) =     15.62199  eV     1   --> A''            
     e( 86 - 86) =     15.68393  eV     1   --> A'             
     e( 87 - 87) =     15.68418  eV     1   --> A''            
     e( 88 - 88) =     15.69463  eV     1   --> A'             
     e( 89 - 90) =     15.74692  eV     2   --> A'             
     e( 89 - 90) =     15.74692  eV     2   --> A''            
     e( 91 - 91) =     15.95099  eV     1   --> A'             
     e( 92 - 92) =     16.01911  eV     1   --> A'             
     e( 93 - 93) =     16.04419  eV     1   --> A''            
     e( 94 - 94) =     16.17151  eV     1   -->   ?
     e( 95 - 95) =     16.17164  eV     1   -->   ?
     e( 96 - 96) =     16.19329  eV     1   --> A'             
     e( 97 - 97) =     17.50058  eV     1   --> A''            
     e( 98 - 98) =     17.50236  eV     1   --> A'             
     e( 99 - 99) =     17.52702  eV     1   --> A'             
     e(100 -100) =     17.55243  eV     1   --> A''            
     e(101 -101) =     17.62473  eV     1   --> A'             
     e(102 -102) =     17.68250  eV     1   --> A''            
     e(103 -103) =     17.68370  eV     1   --> A'             
     e(104 -104) =     17.69832  eV     1   --> A''            
     e(105 -105) =     17.87165  eV     1   --> A'             
     e(106 -106) =     17.88691  eV     1   --> A''            
     e(107 -107) =     17.90274  eV     1   --> A'             
     e(108 -108) =     17.97816  eV     1   --> A'             
     e(109 -109) =     18.01277  eV     1   --> A'             
     e(110 -110) =     18.01422  eV     1   --> A''            
     e(111 -111) =     18.05020  eV     1   --> A''            
     e(112 -112) =     18.07819  eV     1   --> A''            
     e(113 -113) =     18.37157  eV     1   --> A'             
     e(114 -114) =     18.55915  eV     1   --> A'             
     e(115 -115) =     18.56256  eV     1   --> A''            
     e(116 -116) =     19.24822  eV     1   --> A'             
     e(117 -117) =     19.84363  eV     1   --> A'             
     e(118 -118) =     20.30739  eV     1   --> A'             
     e(119 -119) =     20.30870  eV     1   --> A''            
     e(120 -120) =     20.34581  eV     1   --> A''            
     e(121 -121) =     20.47834  eV     1   --> A''            
     e(122 -122) =     20.47957  eV     1   --> A'             
     e(123 -123) =     21.59015  eV     1   --> A'             
     e(124 -124) =     22.55469  eV     1   --> A''            

 **************************************************************************

     BANDS        :   2m57.62s CPU   3m34.85s WALL


   This run was terminated on:  16:55: 5  22Sep2023            

=------------------------------------------------------------------------------=
   JOB DONE.
=------------------------------------------------------------------------------=
