
     Program PWSCF v.7.1 starts on 21Sep2023 at 20:11:22 

     This program is part of the open-source Quantum ESPRESSO suite
     for quantum simulation of materials; please cite
         "P. Giannozzi et al., J. Phys.:Condens. Matter 21 395502 (2009);
         "P. Giannozzi et al., J. Phys.:Condens. Matter 29 465901 (2017);
         "P. Giannozzi et al., J. Chem. Phys. 152 154105 (2020);
          URL http://www.quantum-espresso.org", 
     in publications or presentations arising from this work. More details at
     http://www.quantum-espresso.org/quote

     Parallel version (MPI & OpenMP), running on      10 processor cores
     Number of MPI processes:                10
     Threads/MPI process:                     1

     MPI processes distributed on     1 nodes
     11779 MiB available memory on the printing compute node when the environment starts

     Waiting for input...
     Reading input from standard input

     Current dimensions of program PWSCF are:
     Max number of different atomic species (ntypx) = 10
     Max number of k-points (npk) =  40000
     Max angular momentum in pseudopotentials (lmaxx) =  4

     Atomic positions and unit cell read from directory:
     ./work/pwscf.save/

     file Fe.pbe-spn-kjpaw_psl.1.0.0.UPF: wavefunction(s)  3P 3D renormalized
     file Al.pbe-n-kjpaw_psl.1.0.0.UPF: wavefunction(s)  3S 3P renormalized
     file V.pbe-spn-kjpaw_psl.1.0.0.UPF: wavefunction(s)  3P 3D renormalized
     Found identity + (  0.0000  0.5000 -0.5000) symmetry
     This is a supercell, fractional translations are disabled
     Message from routine setup:
     using ibrav=0 with symmetry is DISCOURAGED, use correct ibrav instead

     R & G space division:  proc/nbgrp/npool/nimage =      10
     Subspace diagonalization in iterative solution of the eigenvalue problem:
     one sub-group per band group will be used
     scalapack distributed-memory algorithm (size of sub-group:  2*  2 procs)


     Parallelization info
     --------------------
     sticks:   dense  smooth     PW     G-vecs:    dense   smooth      PW
     Min         582     259     74                33484     9897    1493
     Max         583     260     75                33487     9900    1494
     Sum        5829    2593    741               334867    98985   14939

     Using Slab Decomposition



     bravais-lattice index     =            0
     lattice parameter (alat)  =      10.6904  a.u.
     unit-cell volume          =    1221.7382 (a.u.)^3
     number of atoms/cell      =           16
     number of atomic types    =            3
     number of electrons       =       192.00
     number of Kohn-Sham states=          172
     kinetic-energy cutoff     =      71.0000  Ry
     charge density cutoff     =     641.0000  Ry
     Exchange-correlation= SLA  PW   PBX  PBC
                           (   1   4   3   4   0   0   0)

     celldm(1)=  10.690370  celldm(2)=   0.000000  celldm(3)=   0.000000
     celldm(4)=   0.000000  celldm(5)=   0.000000  celldm(6)=   0.000000

     crystal axes: (cart. coord. in units of alat)
               a(1) = (   1.000000   0.000000   0.000000 )  
               a(2) = (   0.000000   1.000000   0.000000 )  
               a(3) = (   0.000000   0.000000   1.000000 )  

     reciprocal axes: (cart. coord. in units 2 pi/alat)
               b(1) = (  1.000000  0.000000  0.000000 )  
               b(2) = (  0.000000  1.000000  0.000000 )  
               b(3) = (  0.000000  0.000000  1.000000 )  


     PseudoPot. # 1 for Fe read from file:
     ./../../pseudo/psl100_PBE/Fe.pbe-spn-kjpaw_psl.1.0.0.UPF
     MD5 check sum: bcb9ab80563fcd4521c5f14da65cef4b
     Pseudo is Projector augmented-wave + core cor, Zval = 16.0
     Generated using 'atomic' code by A. Dal Corso  v.7.2
     Shape of augmentation charge: PSQ
     Using radial grid of 1191 points,  6 beta functions with: 
                l(1) =   0
                l(2) =   0
                l(3) =   1
                l(4) =   1
                l(5) =   2
                l(6) =   2
     Q(r) pseudized with 0 coefficients 


     PseudoPot. # 2 for Al read from file:
     ./../../pseudo/psl100_PBE/Al.pbe-n-kjpaw_psl.1.0.0.UPF
     MD5 check sum: cdc280cbf52abc606c33c6b515783d65
     Pseudo is Projector augmented-wave + core cor, Zval =  3.0
     Generated using 'atomic' code by A. Dal Corso  v.7.2
     Shape of augmentation charge: PSQ
     Using radial grid of 1135 points,  6 beta functions with: 
                l(1) =   0
                l(2) =   0
                l(3) =   1
                l(4) =   1
                l(5) =   2
                l(6) =   2
     Q(r) pseudized with 0 coefficients 


     PseudoPot. # 3 for V  read from file:
     ./../../pseudo/psl100_PBE/V.pbe-spn-kjpaw_psl.1.0.0.UPF
     MD5 check sum: cba1cdff171fe0d1b5c7b7b536adf2ed
     Pseudo is Projector augmented-wave + core cor, Zval = 13.0
     Generated using 'atomic' code by A. Dal Corso  v.7.2
     Shape of augmentation charge: PSQ
     Using radial grid of 1181 points,  6 beta functions with: 
                l(1) =   0
                l(2) =   0
                l(3) =   1
                l(4) =   1
                l(5) =   2
                l(6) =   2
     Q(r) pseudized with 0 coefficients 


     atomic species   valence    mass     pseudopotential
        Fe            16.00    55.84500     Fe( 1.00)
        Al             3.00    26.98100     Al( 1.00)
        V             13.00    50.94150     V ( 1.00)

     48 Sym. Ops., with inversion, found


                                    s                        frac. trans.

      isym =  1     identity                                     

 cryst.   s( 1) = (     1          0          0      )
                  (     0          1          0      )
                  (     0          0          1      )

 cart.    s( 1) = (  1.0000000  0.0000000  0.0000000 )
                  (  0.0000000  1.0000000  0.0000000 )
                  (  0.0000000  0.0000000  1.0000000 )


      isym =  2     180 deg rotation - cart. axis [0,0,1]        

 cryst.   s( 2) = (    -1          0          0      )
                  (     0         -1          0      )
                  (     0          0          1      )

 cart.    s( 2) = ( -1.0000000  0.0000000  0.0000000 )
                  (  0.0000000 -1.0000000  0.0000000 )
                  (  0.0000000  0.0000000  1.0000000 )


      isym =  3     180 deg rotation - cart. axis [0,1,0]        

 cryst.   s( 3) = (    -1          0          0      )
                  (     0          1          0      )
                  (     0          0         -1      )

 cart.    s( 3) = ( -1.0000000  0.0000000  0.0000000 )
                  (  0.0000000  1.0000000  0.0000000 )
                  (  0.0000000  0.0000000 -1.0000000 )


      isym =  4     180 deg rotation - cart. axis [1,0,0]        

 cryst.   s( 4) = (     1          0          0      )
                  (     0         -1          0      )
                  (     0          0         -1      )

 cart.    s( 4) = (  1.0000000  0.0000000  0.0000000 )
                  (  0.0000000 -1.0000000  0.0000000 )
                  (  0.0000000  0.0000000 -1.0000000 )


      isym =  5     180 deg rotation - cart. axis [1,1,0]        

 cryst.   s( 5) = (     0          1          0      )
                  (     1          0          0      )
                  (     0          0         -1      )

 cart.    s( 5) = (  0.0000000  1.0000000  0.0000000 )
                  (  1.0000000  0.0000000  0.0000000 )
                  (  0.0000000  0.0000000 -1.0000000 )


      isym =  6     180 deg rotation - cart. axis [1,-1,0]       

 cryst.   s( 6) = (     0         -1          0      )
                  (    -1          0          0      )
                  (     0          0         -1      )

 cart.    s( 6) = (  0.0000000 -1.0000000  0.0000000 )
                  ( -1.0000000  0.0000000  0.0000000 )
                  (  0.0000000  0.0000000 -1.0000000 )


      isym =  7      90 deg rotation - cart. axis [0,0,-1]       

 cryst.   s( 7) = (     0         -1          0      )
                  (     1          0          0      )
                  (     0          0          1      )

 cart.    s( 7) = (  0.0000000  1.0000000  0.0000000 )
                  ( -1.0000000  0.0000000  0.0000000 )
                  (  0.0000000  0.0000000  1.0000000 )


      isym =  8      90 deg rotation - cart. axis [0,0,1]        

 cryst.   s( 8) = (     0          1          0      )
                  (    -1          0          0      )
                  (     0          0          1      )

 cart.    s( 8) = (  0.0000000 -1.0000000  0.0000000 )
                  (  1.0000000  0.0000000  0.0000000 )
                  (  0.0000000  0.0000000  1.0000000 )


      isym =  9     180 deg rotation - cart. axis [1,0,1]        

 cryst.   s( 9) = (     0          0          1      )
                  (     0         -1          0      )
                  (     1          0          0      )

 cart.    s( 9) = (  0.0000000  0.0000000  1.0000000 )
                  (  0.0000000 -1.0000000  0.0000000 )
                  (  1.0000000  0.0000000  0.0000000 )


      isym = 10     180 deg rotation - cart. axis [-1,0,1]       

 cryst.   s(10) = (     0          0         -1      )
                  (     0         -1          0      )
                  (    -1          0          0      )

 cart.    s(10) = (  0.0000000  0.0000000 -1.0000000 )
                  (  0.0000000 -1.0000000  0.0000000 )
                  ( -1.0000000  0.0000000  0.0000000 )


      isym = 11      90 deg rotation - cart. axis [0,1,0]        

 cryst.   s(11) = (     0          0         -1      )
                  (     0          1          0      )
                  (     1          0          0      )

 cart.    s(11) = (  0.0000000  0.0000000  1.0000000 )
                  (  0.0000000  1.0000000  0.0000000 )
                  ( -1.0000000  0.0000000  0.0000000 )


      isym = 12      90 deg rotation - cart. axis [0,-1,0]       

 cryst.   s(12) = (     0          0          1      )
                  (     0          1          0      )
                  (    -1          0          0      )

 cart.    s(12) = (  0.0000000  0.0000000 -1.0000000 )
                  (  0.0000000  1.0000000  0.0000000 )
                  (  1.0000000  0.0000000  0.0000000 )


      isym = 13     180 deg rotation - cart. axis [0,1,1]        

 cryst.   s(13) = (    -1          0          0      )
                  (     0          0          1      )
                  (     0          1          0      )

 cart.    s(13) = ( -1.0000000  0.0000000  0.0000000 )
                  (  0.0000000  0.0000000  1.0000000 )
                  (  0.0000000  1.0000000  0.0000000 )


      isym = 14     180 deg rotation - cart. axis [0,1,-1]       

 cryst.   s(14) = (    -1          0          0      )
                  (     0          0         -1      )
                  (     0         -1          0      )

 cart.    s(14) = ( -1.0000000  0.0000000  0.0000000 )
                  (  0.0000000  0.0000000 -1.0000000 )
                  (  0.0000000 -1.0000000  0.0000000 )


      isym = 15      90 deg rotation - cart. axis [-1,0,0]       

 cryst.   s(15) = (     1          0          0      )
                  (     0          0         -1      )
                  (     0          1          0      )

 cart.    s(15) = (  1.0000000  0.0000000  0.0000000 )
                  (  0.0000000  0.0000000  1.0000000 )
                  (  0.0000000 -1.0000000  0.0000000 )


      isym = 16      90 deg rotation - cart. axis [1,0,0]        

 cryst.   s(16) = (     1          0          0      )
                  (     0          0          1      )
                  (     0         -1          0      )

 cart.    s(16) = (  1.0000000  0.0000000  0.0000000 )
                  (  0.0000000  0.0000000 -1.0000000 )
                  (  0.0000000  1.0000000  0.0000000 )


      isym = 17     120 deg rotation - cart. axis [-1,-1,-1]     

 cryst.   s(17) = (     0          0          1      )
                  (     1          0          0      )
                  (     0          1          0      )

 cart.    s(17) = (  0.0000000  1.0000000  0.0000000 )
                  (  0.0000000  0.0000000  1.0000000 )
                  (  1.0000000  0.0000000  0.0000000 )


      isym = 18     120 deg rotation - cart. axis [-1,1,1]       

 cryst.   s(18) = (     0          0         -1      )
                  (    -1          0          0      )
                  (     0          1          0      )

 cart.    s(18) = (  0.0000000 -1.0000000  0.0000000 )
                  (  0.0000000  0.0000000  1.0000000 )
                  ( -1.0000000  0.0000000  0.0000000 )


      isym = 19     120 deg rotation - cart. axis [1,1,-1]       

 cryst.   s(19) = (     0          0         -1      )
                  (     1          0          0      )
                  (     0         -1          0      )

 cart.    s(19) = (  0.0000000  1.0000000  0.0000000 )
                  (  0.0000000  0.0000000 -1.0000000 )
                  ( -1.0000000  0.0000000  0.0000000 )


      isym = 20     120 deg rotation - cart. axis [1,-1,1]       

 cryst.   s(20) = (     0          0          1      )
                  (    -1          0          0      )
                  (     0         -1          0      )

 cart.    s(20) = (  0.0000000 -1.0000000  0.0000000 )
                  (  0.0000000  0.0000000 -1.0000000 )
                  (  1.0000000  0.0000000  0.0000000 )


      isym = 21     120 deg rotation - cart. axis [1,1,1]        

 cryst.   s(21) = (     0          1          0      )
                  (     0          0          1      )
                  (     1          0          0      )

 cart.    s(21) = (  0.0000000  0.0000000  1.0000000 )
                  (  1.0000000  0.0000000  0.0000000 )
                  (  0.0000000  1.0000000  0.0000000 )


      isym = 22     120 deg rotation - cart. axis [-1,1,-1]      

 cryst.   s(22) = (     0         -1          0      )
                  (     0          0         -1      )
                  (     1          0          0      )

 cart.    s(22) = (  0.0000000  0.0000000  1.0000000 )
                  ( -1.0000000  0.0000000  0.0000000 )
                  (  0.0000000 -1.0000000  0.0000000 )


      isym = 23     120 deg rotation - cart. axis [1,-1,-1]      

 cryst.   s(23) = (     0         -1          0      )
                  (     0          0          1      )
                  (    -1          0          0      )

 cart.    s(23) = (  0.0000000  0.0000000 -1.0000000 )
                  ( -1.0000000  0.0000000  0.0000000 )
                  (  0.0000000  1.0000000  0.0000000 )


      isym = 24     120 deg rotation - cart. axis [-1,-1,1]      

 cryst.   s(24) = (     0          1          0      )
                  (     0          0         -1      )
                  (    -1          0          0      )

 cart.    s(24) = (  0.0000000  0.0000000 -1.0000000 )
                  (  1.0000000  0.0000000  0.0000000 )
                  (  0.0000000 -1.0000000  0.0000000 )


      isym = 25     inversion                                    

 cryst.   s(25) = (    -1          0          0      )
                  (     0         -1          0      )
                  (     0          0         -1      )

 cart.    s(25) = ( -1.0000000  0.0000000  0.0000000 )
                  (  0.0000000 -1.0000000  0.0000000 )
                  (  0.0000000  0.0000000 -1.0000000 )


      isym = 26     inv. 180 deg rotation - cart. axis [0,0,1]   

 cryst.   s(26) = (     1          0          0      )
                  (     0          1          0      )
                  (     0          0         -1      )

 cart.    s(26) = (  1.0000000  0.0000000  0.0000000 )
                  (  0.0000000  1.0000000  0.0000000 )
                  (  0.0000000  0.0000000 -1.0000000 )


      isym = 27     inv. 180 deg rotation - cart. axis [0,1,0]   

 cryst.   s(27) = (     1          0          0      )
                  (     0         -1          0      )
                  (     0          0          1      )

 cart.    s(27) = (  1.0000000  0.0000000  0.0000000 )
                  (  0.0000000 -1.0000000  0.0000000 )
                  (  0.0000000  0.0000000  1.0000000 )


      isym = 28     inv. 180 deg rotation - cart. axis [1,0,0]   

 cryst.   s(28) = (    -1          0          0      )
                  (     0          1          0      )
                  (     0          0          1      )

 cart.    s(28) = ( -1.0000000  0.0000000  0.0000000 )
                  (  0.0000000  1.0000000  0.0000000 )
                  (  0.0000000  0.0000000  1.0000000 )


      isym = 29     inv. 180 deg rotation - cart. axis [1,1,0]   

 cryst.   s(29) = (     0         -1          0      )
                  (    -1          0          0      )
                  (     0          0          1      )

 cart.    s(29) = (  0.0000000 -1.0000000  0.0000000 )
                  ( -1.0000000  0.0000000  0.0000000 )
                  (  0.0000000  0.0000000  1.0000000 )


      isym = 30     inv. 180 deg rotation - cart. axis [1,-1,0]  

 cryst.   s(30) = (     0          1          0      )
                  (     1          0          0      )
                  (     0          0          1      )

 cart.    s(30) = (  0.0000000  1.0000000  0.0000000 )
                  (  1.0000000  0.0000000  0.0000000 )
                  (  0.0000000  0.0000000  1.0000000 )


      isym = 31     inv.  90 deg rotation - cart. axis [0,0,-1]  

 cryst.   s(31) = (     0          1          0      )
                  (    -1          0          0      )
                  (     0          0         -1      )

 cart.    s(31) = (  0.0000000 -1.0000000  0.0000000 )
                  (  1.0000000  0.0000000  0.0000000 )
                  (  0.0000000  0.0000000 -1.0000000 )


      isym = 32     inv.  90 deg rotation - cart. axis [0,0,1]   

 cryst.   s(32) = (     0         -1          0      )
                  (     1          0          0      )
                  (     0          0         -1      )

 cart.    s(32) = (  0.0000000  1.0000000  0.0000000 )
                  ( -1.0000000  0.0000000  0.0000000 )
                  (  0.0000000  0.0000000 -1.0000000 )


      isym = 33     inv. 180 deg rotation - cart. axis [1,0,1]   

 cryst.   s(33) = (     0          0         -1      )
                  (     0          1          0      )
                  (    -1          0          0      )

 cart.    s(33) = (  0.0000000  0.0000000 -1.0000000 )
                  (  0.0000000  1.0000000  0.0000000 )
                  ( -1.0000000  0.0000000  0.0000000 )


      isym = 34     inv. 180 deg rotation - cart. axis [-1,0,1]  

 cryst.   s(34) = (     0          0          1      )
                  (     0          1          0      )
                  (     1          0          0      )

 cart.    s(34) = (  0.0000000  0.0000000  1.0000000 )
                  (  0.0000000  1.0000000  0.0000000 )
                  (  1.0000000  0.0000000  0.0000000 )


      isym = 35     inv.  90 deg rotation - cart. axis [0,1,0]   

 cryst.   s(35) = (     0          0          1      )
                  (     0         -1          0      )
                  (    -1          0          0      )

 cart.    s(35) = (  0.0000000  0.0000000 -1.0000000 )
                  (  0.0000000 -1.0000000  0.0000000 )
                  (  1.0000000  0.0000000  0.0000000 )


      isym = 36     inv.  90 deg rotation - cart. axis [0,-1,0]  

 cryst.   s(36) = (     0          0         -1      )
                  (     0         -1          0      )
                  (     1          0          0      )

 cart.    s(36) = (  0.0000000  0.0000000  1.0000000 )
                  (  0.0000000 -1.0000000  0.0000000 )
                  ( -1.0000000  0.0000000  0.0000000 )


      isym = 37     inv. 180 deg rotation - cart. axis [0,1,1]   

 cryst.   s(37) = (     1          0          0      )
                  (     0          0         -1      )
                  (     0         -1          0      )

 cart.    s(37) = (  1.0000000  0.0000000  0.0000000 )
                  (  0.0000000  0.0000000 -1.0000000 )
                  (  0.0000000 -1.0000000  0.0000000 )


      isym = 38     inv. 180 deg rotation - cart. axis [0,1,-1]  

 cryst.   s(38) = (     1          0          0      )
                  (     0          0          1      )
                  (     0          1          0      )

 cart.    s(38) = (  1.0000000  0.0000000  0.0000000 )
                  (  0.0000000  0.0000000  1.0000000 )
                  (  0.0000000  1.0000000  0.0000000 )


      isym = 39     inv.  90 deg rotation - cart. axis [-1,0,0]  

 cryst.   s(39) = (    -1          0          0      )
                  (     0          0          1      )
                  (     0         -1          0      )

 cart.    s(39) = ( -1.0000000  0.0000000  0.0000000 )
                  (  0.0000000  0.0000000 -1.0000000 )
                  (  0.0000000  1.0000000  0.0000000 )


      isym = 40     inv.  90 deg rotation - cart. axis [1,0,0]   

 cryst.   s(40) = (    -1          0          0      )
                  (     0          0         -1      )
                  (     0          1          0      )

 cart.    s(40) = ( -1.0000000  0.0000000  0.0000000 )
                  (  0.0000000  0.0000000  1.0000000 )
                  (  0.0000000 -1.0000000  0.0000000 )


      isym = 41     inv. 120 deg rotation - cart. axis [-1,-1,-1]

 cryst.   s(41) = (     0          0         -1      )
                  (    -1          0          0      )
                  (     0         -1          0      )

 cart.    s(41) = (  0.0000000 -1.0000000  0.0000000 )
                  (  0.0000000  0.0000000 -1.0000000 )
                  ( -1.0000000  0.0000000  0.0000000 )


      isym = 42     inv. 120 deg rotation - cart. axis [-1,1,1]  

 cryst.   s(42) = (     0          0          1      )
                  (     1          0          0      )
                  (     0         -1          0      )

 cart.    s(42) = (  0.0000000  1.0000000  0.0000000 )
                  (  0.0000000  0.0000000 -1.0000000 )
                  (  1.0000000  0.0000000  0.0000000 )


      isym = 43     inv. 120 deg rotation - cart. axis [1,1,-1]  

 cryst.   s(43) = (     0          0          1      )
                  (    -1          0          0      )
                  (     0          1          0      )

 cart.    s(43) = (  0.0000000 -1.0000000  0.0000000 )
                  (  0.0000000  0.0000000  1.0000000 )
                  (  1.0000000  0.0000000  0.0000000 )


      isym = 44     inv. 120 deg rotation - cart. axis [1,-1,1]  

 cryst.   s(44) = (     0          0         -1      )
                  (     1          0          0      )
                  (     0          1          0      )

 cart.    s(44) = (  0.0000000  1.0000000  0.0000000 )
                  (  0.0000000  0.0000000  1.0000000 )
                  ( -1.0000000  0.0000000  0.0000000 )


      isym = 45     inv. 120 deg rotation - cart. axis [1,1,1]   

 cryst.   s(45) = (     0         -1          0      )
                  (     0          0         -1      )
                  (    -1          0          0      )

 cart.    s(45) = (  0.0000000  0.0000000 -1.0000000 )
                  ( -1.0000000  0.0000000  0.0000000 )
                  (  0.0000000 -1.0000000  0.0000000 )


      isym = 46     inv. 120 deg rotation - cart. axis [-1,1,-1] 

 cryst.   s(46) = (     0          1          0      )
                  (     0          0          1      )
                  (    -1          0          0      )

 cart.    s(46) = (  0.0000000  0.0000000 -1.0000000 )
                  (  1.0000000  0.0000000  0.0000000 )
                  (  0.0000000  1.0000000  0.0000000 )


      isym = 47     inv. 120 deg rotation - cart. axis [1,-1,-1] 

 cryst.   s(47) = (     0          1          0      )
                  (     0          0         -1      )
                  (     1          0          0      )

 cart.    s(47) = (  0.0000000  0.0000000  1.0000000 )
                  (  1.0000000  0.0000000  0.0000000 )
                  (  0.0000000 -1.0000000  0.0000000 )


      isym = 48     inv. 120 deg rotation - cart. axis [-1,-1,1] 

 cryst.   s(48) = (     0         -1          0      )
                  (     0          0          1      )
                  (     1          0          0      )

 cart.    s(48) = (  0.0000000  0.0000000  1.0000000 )
                  ( -1.0000000  0.0000000  0.0000000 )
                  (  0.0000000  1.0000000  0.0000000 )


   Cartesian axes

     site n.     atom                  positions (alat units)
         1           Fe  tau(   1) = (   0.7500000   0.2500000   0.7500000  )
         2           Fe  tau(   2) = (   0.7500000   0.7500000   0.7500000  )
         3           Fe  tau(   3) = (   0.7500000   0.7500000   0.2500000  )
         4           Fe  tau(   4) = (   0.7500000   0.2500000   0.2500000  )
         5           Fe  tau(   5) = (   0.2500000   0.2500000   0.2500000  )
         6           Fe  tau(   6) = (   0.2500000   0.2500000   0.7500000  )
         7           Fe  tau(   7) = (   0.2500000   0.7500000   0.2500000  )
         8           Fe  tau(   8) = (   0.2500000   0.7500000   0.7500000  )
         9           V   tau(   9) = (   0.5000000   0.0000000   0.0000000  )
        10           V   tau(  10) = (   0.0000000   0.0000000   0.5000000  )
        11           V   tau(  11) = (   0.5000000   0.5000000   0.5000000  )
        12           V   tau(  12) = (   0.0000000   0.5000000   0.0000000  )
        13           Al  tau(  13) = (   0.0000000   0.0000000   0.0000000  )
        14           Al  tau(  14) = (   0.5000000   0.0000000   0.5000000  )
        15           Al  tau(  15) = (   0.0000000   0.5000000   0.5000000  )
        16           Al  tau(  16) = (   0.5000000   0.5000000   0.0000000  )

   Crystallographic axes

     site n.     atom                  positions (cryst. coord.)
         1           Fe  tau(   1) = (  0.7500000  0.2500000  0.7500000  )
         2           Fe  tau(   2) = (  0.7500000  0.7500000  0.7500000  )
         3           Fe  tau(   3) = (  0.7500000  0.7500000  0.2500000  )
         4           Fe  tau(   4) = (  0.7500000  0.2500000  0.2500000  )
         5           Fe  tau(   5) = (  0.2500000  0.2500000  0.2500000  )
         6           Fe  tau(   6) = (  0.2500000  0.2500000  0.7500000  )
         7           Fe  tau(   7) = (  0.2500000  0.7500000  0.2500000  )
         8           Fe  tau(   8) = (  0.2500000  0.7500000  0.7500000  )
         9           V   tau(   9) = (  0.5000000  0.0000000  0.0000000  )
        10           V   tau(  10) = (  0.0000000  0.0000000  0.5000000  )
        11           V   tau(  11) = (  0.5000000  0.5000000  0.5000000  )
        12           V   tau(  12) = (  0.0000000  0.5000000  0.0000000  )
        13           Al  tau(  13) = (  0.0000000  0.0000000  0.0000000  )
        14           Al  tau(  14) = (  0.5000000  0.0000000  0.5000000  )
        15           Al  tau(  15) = (  0.0000000  0.5000000  0.5000000  )
        16           Al  tau(  16) = (  0.5000000  0.5000000  0.0000000  )

     number of k points=   101  Methfessel-Paxton smearing, width (Ry)=  0.0100
                       cart. coord. in units 2pi/alat
        k(    1) = (   0.5000000   0.2500000   0.7500000), wk =   0.0198020
        k(    2) = (   0.4750000   0.2625000   0.7125000), wk =   0.0198020
        k(    3) = (   0.4500000   0.2750000   0.6750000), wk =   0.0198020
        k(    4) = (   0.4250000   0.2875000   0.6375000), wk =   0.0198020
        k(    5) = (   0.4000000   0.3000000   0.6000000), wk =   0.0198020
        k(    6) = (   0.3750000   0.3125000   0.5625000), wk =   0.0198020
        k(    7) = (   0.3500000   0.3250000   0.5250000), wk =   0.0198020
        k(    8) = (   0.3250000   0.3375000   0.4875000), wk =   0.0198020
        k(    9) = (   0.3000000   0.3500000   0.4500000), wk =   0.0198020
        k(   10) = (   0.2750000   0.3625000   0.4125000), wk =   0.0198020
        k(   11) = (   0.2500000   0.3750000   0.3750000), wk =   0.0198020
        k(   12) = (   0.2250000   0.3875000   0.3375000), wk =   0.0198020
        k(   13) = (   0.2000000   0.4000000   0.3000000), wk =   0.0198020
        k(   14) = (   0.1750000   0.4125000   0.2625000), wk =   0.0198020
        k(   15) = (   0.1500000   0.4250000   0.2250000), wk =   0.0198020
        k(   16) = (   0.1250000   0.4375000   0.1875000), wk =   0.0198020
        k(   17) = (   0.1000000   0.4500000   0.1500000), wk =   0.0198020
        k(   18) = (   0.0750000   0.4625000   0.1125000), wk =   0.0198020
        k(   19) = (   0.0500000   0.4750000   0.0750000), wk =   0.0198020
        k(   20) = (   0.0250000   0.4875000   0.0375000), wk =   0.0198020
        k(   21) = (   0.0000000   0.5000000   0.0000000), wk =   0.0198020
        k(   22) = (   0.0000000   0.4750000   0.0000000), wk =   0.0198020
        k(   23) = (   0.0000000   0.4500000   0.0000000), wk =   0.0198020
        k(   24) = (   0.0000000   0.4250000   0.0000000), wk =   0.0198020
        k(   25) = (   0.0000000   0.4000000   0.0000000), wk =   0.0198020
        k(   26) = (   0.0000000   0.3750000   0.0000000), wk =   0.0198020
        k(   27) = (   0.0000000   0.3500000   0.0000000), wk =   0.0198020
        k(   28) = (   0.0000000   0.3250000   0.0000000), wk =   0.0198020
        k(   29) = (   0.0000000   0.3000000   0.0000000), wk =   0.0198020
        k(   30) = (   0.0000000   0.2750000   0.0000000), wk =   0.0198020
        k(   31) = (   0.0000000   0.2500000   0.0000000), wk =   0.0198020
        k(   32) = (   0.0000000   0.2250000   0.0000000), wk =   0.0198020
        k(   33) = (   0.0000000   0.2000000   0.0000000), wk =   0.0198020
        k(   34) = (   0.0000000   0.1750000   0.0000000), wk =   0.0198020
        k(   35) = (   0.0000000   0.1500000   0.0000000), wk =   0.0198020
        k(   36) = (   0.0000000   0.1250000   0.0000000), wk =   0.0198020
        k(   37) = (   0.0000000   0.1000000   0.0000000), wk =   0.0198020
        k(   38) = (   0.0000000   0.0750000   0.0000000), wk =   0.0198020
        k(   39) = (   0.0000000   0.0500000   0.0000000), wk =   0.0198020
        k(   40) = (   0.0000000   0.0250000   0.0000000), wk =   0.0198020
        k(   41) = (   0.0000000   0.0000000   0.0000000), wk =   0.0198020
        k(   42) = (   0.0000000   0.0250000   0.0250000), wk =   0.0198020
        k(   43) = (   0.0000000   0.0500000   0.0500000), wk =   0.0198020
        k(   44) = (   0.0000000   0.0750000   0.0750000), wk =   0.0198020
        k(   45) = (   0.0000000   0.1000000   0.1000000), wk =   0.0198020
        k(   46) = (   0.0000000   0.1250000   0.1250000), wk =   0.0198020
        k(   47) = (   0.0000000   0.1500000   0.1500000), wk =   0.0198020
        k(   48) = (   0.0000000   0.1750000   0.1750000), wk =   0.0198020
        k(   49) = (   0.0000000   0.2000000   0.2000000), wk =   0.0198020
        k(   50) = (   0.0000000   0.2250000   0.2250000), wk =   0.0198020
        k(   51) = (   0.0000000   0.2500000   0.2500000), wk =   0.0198020
        k(   52) = (   0.0000000   0.2750000   0.2750000), wk =   0.0198020
        k(   53) = (   0.0000000   0.3000000   0.3000000), wk =   0.0198020
        k(   54) = (   0.0000000   0.3250000   0.3250000), wk =   0.0198020
        k(   55) = (   0.0000000   0.3500000   0.3500000), wk =   0.0198020
        k(   56) = (   0.0000000   0.3750000   0.3750000), wk =   0.0198020
        k(   57) = (   0.0000000   0.4000000   0.4000000), wk =   0.0198020
        k(   58) = (   0.0000000   0.4250000   0.4250000), wk =   0.0198020
        k(   59) = (   0.0000000   0.4500000   0.4500000), wk =   0.0198020
        k(   60) = (   0.0000000   0.4750000   0.4750000), wk =   0.0198020
        k(   61) = (   0.0000000   0.5000000   0.5000000), wk =   0.0198020
        k(   62) = (   0.0375000   0.5000000   0.4875000), wk =   0.0198020
        k(   63) = (   0.0750000   0.5000000   0.4750000), wk =   0.0198020
        k(   64) = (   0.1125000   0.5000000   0.4625000), wk =   0.0198020
        k(   65) = (   0.1500000   0.5000000   0.4500000), wk =   0.0198020
        k(   66) = (   0.1875000   0.5000000   0.4375000), wk =   0.0198020
        k(   67) = (   0.2250000   0.5000000   0.4250000), wk =   0.0198020
        k(   68) = (   0.2625000   0.5000000   0.4125000), wk =   0.0198020
        k(   69) = (   0.3000000   0.5000000   0.4000000), wk =   0.0198020
        k(   70) = (   0.3375000   0.5000000   0.3875000), wk =   0.0198020
        k(   71) = (   0.3750000   0.5000000   0.3750000), wk =   0.0198020
        k(   72) = (   0.4125000   0.5000000   0.3625000), wk =   0.0198020
        k(   73) = (   0.4500000   0.5000000   0.3500000), wk =   0.0198020
        k(   74) = (   0.4875000   0.5000000   0.3375000), wk =   0.0198020
        k(   75) = (   0.5250000   0.5000000   0.3250000), wk =   0.0198020
        k(   76) = (   0.5625000   0.5000000   0.3125000), wk =   0.0198020
        k(   77) = (   0.6000000   0.5000000   0.3000000), wk =   0.0198020
        k(   78) = (   0.6375000   0.5000000   0.2875000), wk =   0.0198020
        k(   79) = (   0.6750000   0.5000000   0.2750000), wk =   0.0198020
        k(   80) = (   0.7125000   0.5000000   0.2625000), wk =   0.0198020
        k(   81) = (   0.7500000   0.5000000   0.2500000), wk =   0.0198020
        k(   82) = (   0.7500000   0.4937500   0.2562500), wk =   0.0198020
        k(   83) = (   0.7500000   0.4875000   0.2625000), wk =   0.0198020
        k(   84) = (   0.7500000   0.4812500   0.2687500), wk =   0.0198020
        k(   85) = (   0.7500000   0.4750000   0.2750000), wk =   0.0198020
        k(   86) = (   0.7500000   0.4687500   0.2812500), wk =   0.0198020
        k(   87) = (   0.7500000   0.4625000   0.2875000), wk =   0.0198020
        k(   88) = (   0.7500000   0.4562500   0.2937500), wk =   0.0198020
        k(   89) = (   0.7500000   0.4500000   0.3000000), wk =   0.0198020
        k(   90) = (   0.7500000   0.4437500   0.3062500), wk =   0.0198020
        k(   91) = (   0.7500000   0.4375000   0.3125000), wk =   0.0198020
        k(   92) = (   0.7500000   0.4312500   0.3187500), wk =   0.0198020
        k(   93) = (   0.7500000   0.4250000   0.3250000), wk =   0.0198020
        k(   94) = (   0.7500000   0.4187500   0.3312500), wk =   0.0198020
        k(   95) = (   0.7500000   0.4125000   0.3375000), wk =   0.0198020
        k(   96) = (   0.7500000   0.4062500   0.3437500), wk =   0.0198020
        k(   97) = (   0.7500000   0.4000000   0.3500000), wk =   0.0198020
        k(   98) = (   0.7500000   0.3937500   0.3562500), wk =   0.0198020
        k(   99) = (   0.7500000   0.3875000   0.3625000), wk =   0.0198020
        k(  100) = (   0.7500000   0.3812500   0.3687500), wk =   0.0198020
        k(  101) = (   0.7500000   0.3750000   0.3750000), wk =   0.0198020

                       cryst. coord.
        k(    1) = (   0.5000000   0.2500000   0.7500000), wk =   0.0198020
        k(    2) = (   0.4750000   0.2625000   0.7125000), wk =   0.0198020
        k(    3) = (   0.4500000   0.2750000   0.6750000), wk =   0.0198020
        k(    4) = (   0.4250000   0.2875000   0.6375000), wk =   0.0198020
        k(    5) = (   0.4000000   0.3000000   0.6000000), wk =   0.0198020
        k(    6) = (   0.3750000   0.3125000   0.5625000), wk =   0.0198020
        k(    7) = (   0.3500000   0.3250000   0.5250000), wk =   0.0198020
        k(    8) = (   0.3250000   0.3375000   0.4875000), wk =   0.0198020
        k(    9) = (   0.3000000   0.3500000   0.4500000), wk =   0.0198020
        k(   10) = (   0.2750000   0.3625000   0.4125000), wk =   0.0198020
        k(   11) = (   0.2500000   0.3750000   0.3750000), wk =   0.0198020
        k(   12) = (   0.2250000   0.3875000   0.3375000), wk =   0.0198020
        k(   13) = (   0.2000000   0.4000000   0.3000000), wk =   0.0198020
        k(   14) = (   0.1750000   0.4125000   0.2625000), wk =   0.0198020
        k(   15) = (   0.1500000   0.4250000   0.2250000), wk =   0.0198020
        k(   16) = (   0.1250000   0.4375000   0.1875000), wk =   0.0198020
        k(   17) = (   0.1000000   0.4500000   0.1500000), wk =   0.0198020
        k(   18) = (   0.0750000   0.4625000   0.1125000), wk =   0.0198020
        k(   19) = (   0.0500000   0.4750000   0.0750000), wk =   0.0198020
        k(   20) = (   0.0250000   0.4875000   0.0375000), wk =   0.0198020
        k(   21) = (   0.0000000   0.5000000   0.0000000), wk =   0.0198020
        k(   22) = (   0.0000000   0.4750000   0.0000000), wk =   0.0198020
        k(   23) = (   0.0000000   0.4500000   0.0000000), wk =   0.0198020
        k(   24) = (   0.0000000   0.4250000   0.0000000), wk =   0.0198020
        k(   25) = (   0.0000000   0.4000000   0.0000000), wk =   0.0198020
        k(   26) = (   0.0000000   0.3750000   0.0000000), wk =   0.0198020
        k(   27) = (   0.0000000   0.3500000   0.0000000), wk =   0.0198020
        k(   28) = (   0.0000000   0.3250000   0.0000000), wk =   0.0198020
        k(   29) = (   0.0000000   0.3000000   0.0000000), wk =   0.0198020
        k(   30) = (   0.0000000   0.2750000   0.0000000), wk =   0.0198020
        k(   31) = (   0.0000000   0.2500000   0.0000000), wk =   0.0198020
        k(   32) = (   0.0000000   0.2250000   0.0000000), wk =   0.0198020
        k(   33) = (   0.0000000   0.2000000   0.0000000), wk =   0.0198020
        k(   34) = (   0.0000000   0.1750000   0.0000000), wk =   0.0198020
        k(   35) = (   0.0000000   0.1500000   0.0000000), wk =   0.0198020
        k(   36) = (   0.0000000   0.1250000   0.0000000), wk =   0.0198020
        k(   37) = (   0.0000000   0.1000000   0.0000000), wk =   0.0198020
        k(   38) = (   0.0000000   0.0750000   0.0000000), wk =   0.0198020
        k(   39) = (   0.0000000   0.0500000   0.0000000), wk =   0.0198020
        k(   40) = (   0.0000000   0.0250000   0.0000000), wk =   0.0198020
        k(   41) = (   0.0000000   0.0000000   0.0000000), wk =   0.0198020
        k(   42) = (   0.0000000   0.0250000   0.0250000), wk =   0.0198020
        k(   43) = (   0.0000000   0.0500000   0.0500000), wk =   0.0198020
        k(   44) = (   0.0000000   0.0750000   0.0750000), wk =   0.0198020
        k(   45) = (   0.0000000   0.1000000   0.1000000), wk =   0.0198020
        k(   46) = (   0.0000000   0.1250000   0.1250000), wk =   0.0198020
        k(   47) = (   0.0000000   0.1500000   0.1500000), wk =   0.0198020
        k(   48) = (   0.0000000   0.1750000   0.1750000), wk =   0.0198020
        k(   49) = (   0.0000000   0.2000000   0.2000000), wk =   0.0198020
        k(   50) = (   0.0000000   0.2250000   0.2250000), wk =   0.0198020
        k(   51) = (   0.0000000   0.2500000   0.2500000), wk =   0.0198020
        k(   52) = (   0.0000000   0.2750000   0.2750000), wk =   0.0198020
        k(   53) = (   0.0000000   0.3000000   0.3000000), wk =   0.0198020
        k(   54) = (   0.0000000   0.3250000   0.3250000), wk =   0.0198020
        k(   55) = (   0.0000000   0.3500000   0.3500000), wk =   0.0198020
        k(   56) = (   0.0000000   0.3750000   0.3750000), wk =   0.0198020
        k(   57) = (   0.0000000   0.4000000   0.4000000), wk =   0.0198020
        k(   58) = (   0.0000000   0.4250000   0.4250000), wk =   0.0198020
        k(   59) = (   0.0000000   0.4500000   0.4500000), wk =   0.0198020
        k(   60) = (   0.0000000   0.4750000   0.4750000), wk =   0.0198020
        k(   61) = (   0.0000000   0.5000000   0.5000000), wk =   0.0198020
        k(   62) = (   0.0375000   0.5000000   0.4875000), wk =   0.0198020
        k(   63) = (   0.0750000   0.5000000   0.4750000), wk =   0.0198020
        k(   64) = (   0.1125000   0.5000000   0.4625000), wk =   0.0198020
        k(   65) = (   0.1500000   0.5000000   0.4500000), wk =   0.0198020
        k(   66) = (   0.1875000   0.5000000   0.4375000), wk =   0.0198020
        k(   67) = (   0.2250000   0.5000000   0.4250000), wk =   0.0198020
        k(   68) = (   0.2625000   0.5000000   0.4125000), wk =   0.0198020
        k(   69) = (   0.3000000   0.5000000   0.4000000), wk =   0.0198020
        k(   70) = (   0.3375000   0.5000000   0.3875000), wk =   0.0198020
        k(   71) = (   0.3750000   0.5000000   0.3750000), wk =   0.0198020
        k(   72) = (   0.4125000   0.5000000   0.3625000), wk =   0.0198020
        k(   73) = (   0.4500000   0.5000000   0.3500000), wk =   0.0198020
        k(   74) = (   0.4875000   0.5000000   0.3375000), wk =   0.0198020
        k(   75) = (   0.5250000   0.5000000   0.3250000), wk =   0.0198020
        k(   76) = (   0.5625000   0.5000000   0.3125000), wk =   0.0198020
        k(   77) = (   0.6000000   0.5000000   0.3000000), wk =   0.0198020
        k(   78) = (   0.6375000   0.5000000   0.2875000), wk =   0.0198020
        k(   79) = (   0.6750000   0.5000000   0.2750000), wk =   0.0198020
        k(   80) = (   0.7125000   0.5000000   0.2625000), wk =   0.0198020
        k(   81) = (   0.7500000   0.5000000   0.2500000), wk =   0.0198020
        k(   82) = (   0.7500000   0.4937500   0.2562500), wk =   0.0198020
        k(   83) = (   0.7500000   0.4875000   0.2625000), wk =   0.0198020
        k(   84) = (   0.7500000   0.4812500   0.2687500), wk =   0.0198020
        k(   85) = (   0.7500000   0.4750000   0.2750000), wk =   0.0198020
        k(   86) = (   0.7500000   0.4687500   0.2812500), wk =   0.0198020
        k(   87) = (   0.7500000   0.4625000   0.2875000), wk =   0.0198020
        k(   88) = (   0.7500000   0.4562500   0.2937500), wk =   0.0198020
        k(   89) = (   0.7500000   0.4500000   0.3000000), wk =   0.0198020
        k(   90) = (   0.7500000   0.4437500   0.3062500), wk =   0.0198020
        k(   91) = (   0.7500000   0.4375000   0.3125000), wk =   0.0198020
        k(   92) = (   0.7500000   0.4312500   0.3187500), wk =   0.0198020
        k(   93) = (   0.7500000   0.4250000   0.3250000), wk =   0.0198020
        k(   94) = (   0.7500000   0.4187500   0.3312500), wk =   0.0198020
        k(   95) = (   0.7500000   0.4125000   0.3375000), wk =   0.0198020
        k(   96) = (   0.7500000   0.4062500   0.3437500), wk =   0.0198020
        k(   97) = (   0.7500000   0.4000000   0.3500000), wk =   0.0198020
        k(   98) = (   0.7500000   0.3937500   0.3562500), wk =   0.0198020
        k(   99) = (   0.7500000   0.3875000   0.3625000), wk =   0.0198020
        k(  100) = (   0.7500000   0.3812500   0.3687500), wk =   0.0198020
        k(  101) = (   0.7500000   0.3750000   0.3750000), wk =   0.0198020

     Dense  grid:   334867 G-vectors     FFT dimensions: (  90,  90,  90)

     Smooth grid:    98985 G-vectors     FFT dimensions: (  60,  60,  60)

     Dynamical RAM for                 wfc:       3.24 MB

     Dynamical RAM for     wfc (w. buffer):     330.34 MB

     Dynamical RAM for           str. fact:       1.53 MB

     Dynamical RAM for           local pot:       0.00 MB

     Dynamical RAM for          nlocal pot:       5.42 MB

     Dynamical RAM for                qrad:       6.09 MB

     Dynamical RAM for          rho,v,vnew:       3.20 MB

     Dynamical RAM for           G-vectors:       1.99 MB

     Dynamical RAM for          h,s,v(r/c):       1.35 MB

     Dynamical RAM for          <psi|beta>:       0.76 MB

     Dynamical RAM for                 psi:       6.48 MB

     Dynamical RAM for                hpsi:       6.48 MB

     Dynamical RAM for                spsi:       6.48 MB

     Dynamical RAM for      wfcinit/wfcrot:       7.16 MB

     Dynamical RAM for           addusdens:      99.13 MB

     Estimated static dynamical RAM per process >     353.41 MB

     Estimated max dynamical RAM per process >     452.54 MB

     Estimated total dynamical RAM >       4.42 GB

     Check: negative core charge=   -0.000001

     The potential is recalculated from file :
     ./work/pwscf.save/charge-density

     Starting wfcs are  136 randomized atomic wfcs +   36 random wfcs
     Checking if some PAW data can be deallocated... 
       PAW data deallocated on    6 nodes for type:  1
       PAW data deallocated on    6 nodes for type:  2
       PAW data deallocated on    8 nodes for type:  3

     Band Structure Calculation
     Davidson diagonalization with overlap

     Computing kpt #:     1  of   101
     total cpu time spent up to now is        5.0 secs

     Computing kpt #:     2  of   101
     total cpu time spent up to now is        8.4 secs

     Computing kpt #:     3  of   101
     total cpu time spent up to now is       12.4 secs

     Computing kpt #:     4  of   101
     total cpu time spent up to now is       16.4 secs

     Computing kpt #:     5  of   101
     total cpu time spent up to now is       20.1 secs

     Computing kpt #:     6  of   101
     total cpu time spent up to now is       24.0 secs

     Computing kpt #:     7  of   101
     total cpu time spent up to now is       27.8 secs

     Computing kpt #:     8  of   101
     total cpu time spent up to now is       31.6 secs

     Computing kpt #:     9  of   101
     total cpu time spent up to now is       35.7 secs

     Computing kpt #:    10  of   101
     total cpu time spent up to now is       39.6 secs

     Computing kpt #:    11  of   101
     total cpu time spent up to now is       43.5 secs

     Computing kpt #:    12  of   101
     total cpu time spent up to now is       46.9 secs

     Computing kpt #:    13  of   101
     total cpu time spent up to now is       50.2 secs

     Computing kpt #:    14  of   101
     total cpu time spent up to now is       53.4 secs

     Computing kpt #:    15  of   101
     total cpu time spent up to now is       56.7 secs

     Computing kpt #:    16  of   101
     total cpu time spent up to now is       59.9 secs

     Computing kpt #:    17  of   101
     total cpu time spent up to now is       63.2 secs

     Computing kpt #:    18  of   101
     total cpu time spent up to now is       67.1 secs

     Computing kpt #:    19  of   101
     total cpu time spent up to now is       71.0 secs

     Computing kpt #:    20  of   101
     total cpu time spent up to now is       74.2 secs

     Computing kpt #:    21  of   101
     total cpu time spent up to now is       77.2 secs

     Computing kpt #:    22  of   101
     total cpu time spent up to now is       80.2 secs

     Computing kpt #:    23  of   101
     total cpu time spent up to now is       83.1 secs

     Computing kpt #:    24  of   101
     total cpu time spent up to now is       86.0 secs

     Computing kpt #:    25  of   101
     total cpu time spent up to now is       89.0 secs

     Computing kpt #:    26  of   101
     total cpu time spent up to now is       92.5 secs

     Computing kpt #:    27  of   101
     total cpu time spent up to now is       95.9 secs

     Computing kpt #:    28  of   101
     total cpu time spent up to now is       99.4 secs

     Computing kpt #:    29  of   101
     total cpu time spent up to now is      102.3 secs

     Computing kpt #:    30  of   101
     total cpu time spent up to now is      105.8 secs

     Computing kpt #:    31  of   101
     total cpu time spent up to now is      109.2 secs

     Computing kpt #:    32  of   101
     total cpu time spent up to now is      113.8 secs

     Computing kpt #:    33  of   101
     total cpu time spent up to now is      117.4 secs

     Computing kpt #:    34  of   101
     total cpu time spent up to now is      120.9 secs

     Computing kpt #:    35  of   101
     total cpu time spent up to now is      124.6 secs

     Computing kpt #:    36  of   101
     total cpu time spent up to now is      129.0 secs

     Computing kpt #:    37  of   101
     total cpu time spent up to now is      132.6 secs

     Computing kpt #:    38  of   101
     total cpu time spent up to now is      136.2 secs

     Computing kpt #:    39  of   101
     total cpu time spent up to now is      139.7 secs

     Computing kpt #:    40  of   101
     total cpu time spent up to now is      143.2 secs

     Computing kpt #:    41  of   101
     total cpu time spent up to now is      146.6 secs

     Computing kpt #:    42  of   101
     total cpu time spent up to now is      150.1 secs

     Computing kpt #:    43  of   101
     total cpu time spent up to now is      153.7 secs

     Computing kpt #:    44  of   101
     total cpu time spent up to now is      157.5 secs

     Computing kpt #:    45  of   101
     total cpu time spent up to now is      161.3 secs

     Computing kpt #:    46  of   101
     total cpu time spent up to now is      165.1 secs

     Computing kpt #:    47  of   101
     total cpu time spent up to now is      168.6 secs

     Computing kpt #:    48  of   101
     total cpu time spent up to now is      171.6 secs

     Computing kpt #:    49  of   101
     total cpu time spent up to now is      174.8 secs

     Computing kpt #:    50  of   101
     total cpu time spent up to now is      178.6 secs

     Computing kpt #:    51  of   101
     total cpu time spent up to now is      182.3 secs

     Computing kpt #:    52  of   101
     total cpu time spent up to now is      186.2 secs

     Computing kpt #:    53  of   101
     total cpu time spent up to now is      190.1 secs

     Computing kpt #:    54  of   101
     total cpu time spent up to now is      194.1 secs

     Computing kpt #:    55  of   101
     total cpu time spent up to now is      197.9 secs

     Computing kpt #:    56  of   101
     total cpu time spent up to now is      201.8 secs

     Computing kpt #:    57  of   101
     total cpu time spent up to now is      205.7 secs

     Computing kpt #:    58  of   101
     total cpu time spent up to now is      209.8 secs

     Computing kpt #:    59  of   101
     total cpu time spent up to now is      213.4 secs

     Computing kpt #:    60  of   101
     total cpu time spent up to now is      217.2 secs

     Computing kpt #:    61  of   101
     total cpu time spent up to now is      221.1 secs

     Computing kpt #:    62  of   101
     total cpu time spent up to now is      225.3 secs

     Computing kpt #:    63  of   101
     total cpu time spent up to now is      229.3 secs

     Computing kpt #:    64  of   101
     total cpu time spent up to now is      233.2 secs

     Computing kpt #:    65  of   101
     total cpu time spent up to now is      237.2 secs

     Computing kpt #:    66  of   101
     total cpu time spent up to now is      242.0 secs

     Computing kpt #:    67  of   101
     total cpu time spent up to now is      245.9 secs

     Computing kpt #:    68  of   101
     total cpu time spent up to now is      249.2 secs

     Computing kpt #:    69  of   101
     total cpu time spent up to now is      252.4 secs

     Computing kpt #:    70  of   101
     total cpu time spent up to now is      256.1 secs

     Computing kpt #:    71  of   101
     total cpu time spent up to now is      260.0 secs

     Computing kpt #:    72  of   101
     total cpu time spent up to now is      263.6 secs

     Computing kpt #:    73  of   101
     total cpu time spent up to now is      267.3 secs

     Computing kpt #:    74  of   101
     total cpu time spent up to now is      271.0 secs

     Computing kpt #:    75  of   101
     total cpu time spent up to now is      274.7 secs

     Computing kpt #:    76  of   101
     total cpu time spent up to now is      278.4 secs

     Computing kpt #:    77  of   101
     total cpu time spent up to now is      281.7 secs

     Computing kpt #:    78  of   101
     total cpu time spent up to now is      285.0 secs

     Computing kpt #:    79  of   101
     total cpu time spent up to now is      288.9 secs

     Computing kpt #:    80  of   101
     total cpu time spent up to now is      292.0 secs

     Computing kpt #:    81  of   101
     total cpu time spent up to now is      295.1 secs

     Computing kpt #:    82  of   101
     total cpu time spent up to now is      298.2 secs

     Computing kpt #:    83  of   101
     total cpu time spent up to now is      301.2 secs

     Computing kpt #:    84  of   101
     total cpu time spent up to now is      304.3 secs

     Computing kpt #:    85  of   101
     total cpu time spent up to now is      307.5 secs

     Computing kpt #:    86  of   101
     total cpu time spent up to now is      310.6 secs

     Computing kpt #:    87  of   101
     total cpu time spent up to now is      313.7 secs

     Computing kpt #:    88  of   101
     total cpu time spent up to now is      316.9 secs

     Computing kpt #:    89  of   101
     total cpu time spent up to now is      320.2 secs

     Computing kpt #:    90  of   101
     total cpu time spent up to now is      323.4 secs

     Computing kpt #:    91  of   101
     total cpu time spent up to now is      326.6 secs

     Computing kpt #:    92  of   101
     total cpu time spent up to now is      329.9 secs

     Computing kpt #:    93  of   101
     total cpu time spent up to now is      333.3 secs

     Computing kpt #:    94  of   101
     total cpu time spent up to now is      336.6 secs

     Computing kpt #:    95  of   101
     total cpu time spent up to now is      340.3 secs

     Computing kpt #:    96  of   101
     total cpu time spent up to now is      344.1 secs

     Computing kpt #:    97  of   101
     total cpu time spent up to now is      347.9 secs

     Computing kpt #:    98  of   101
     total cpu time spent up to now is      351.9 secs

     Computing kpt #:    99  of   101
     total cpu time spent up to now is      356.0 secs

     Computing kpt #:   100  of   101
     total cpu time spent up to now is      359.9 secs

     Computing kpt #:   101  of   101
     total cpu time spent up to now is      363.9 secs

     ethr =  6.25E-07,  avg # of iterations = 23.5

     total cpu time spent up to now is      363.9 secs

     End of band structure calculation

          k = 0.5000 0.2500 0.7500 ( 12338 PWs)   bands (ev):

   -69.5972 -69.5971 -69.5930 -69.5930 -69.5930 -69.5930 -69.5889 -69.5889
   -47.3737 -47.3735 -47.3733 -46.9675 -35.7096 -35.7093 -35.7047 -35.7044
   -35.7032 -35.7032 -35.7028 -35.7028 -35.6836 -35.6835 -35.6807 -35.6806
   -35.6793 -35.6791 -35.6744 -35.6743 -35.6563 -35.6562 -35.6560 -35.6560
   -35.6520 -35.6517 -35.6515 -35.6513 -21.2195 -21.2129 -21.2127 -21.2121
   -21.2106 -21.2098 -21.2069 -21.2063 -21.2048 -20.8194 -20.8194 -20.8193
     9.3342   9.3739  10.7044  10.7423  11.9062  11.9394  12.7059  12.7353
    13.1974  13.2273  13.5987  13.6503  13.8882  13.9351  14.0607  14.1027
    14.4460  14.4484  14.5830  14.6179  14.7400  14.7565  14.9738  14.9837
    15.0205  15.0567  15.0666  15.0830  15.2984  15.3603  15.6008  15.6216
    15.6709  15.6742  15.7995  15.8107  15.8855  15.8935  15.9519  15.9595
    16.2091  16.2162  16.2229  16.2260  16.3916  16.3935  16.6217  16.6270
    17.8457  17.8588  17.9559  18.0087  18.0230  18.0565  18.1554  18.1903
    18.3249  18.3311  18.3679  18.4583  18.5048  18.5056  18.5384  18.6106
    18.8698  18.9241  19.7305  19.7687  20.1741  20.2383  20.3495  20.3614
    21.5619  21.5805  21.9177  21.9333  23.5570  23.6037  24.0653  24.0840
    24.9569  24.9745  25.2485  25.2505  25.2947  25.3316  26.5536  26.5978
    26.8155  26.8558  28.0502  28.0619  28.5360  28.5416  28.9108  28.9329
    29.3102  29.3375  30.5140  30.5531  30.8695  30.8793  31.4089  31.4233
    32.8922  32.9530  33.5693  33.5706  34.2147  34.2231  34.7468  34.7509
    34.9227  34.9529  35.4887  35.4913  35.7474  35.7676  36.1400  36.1715
    36.2319  36.2526  37.2843  37.3179

          k = 0.4750 0.2625 0.7125 ( 12328 PWs)   bands (ev):

   -69.5970 -69.5966 -69.5934 -69.5931 -69.5930 -69.5926 -69.5894 -69.5890
   -47.3737 -47.3735 -47.3733 -46.9675 -35.7074 -35.7071 -35.7026 -35.7025
   -35.7023 -35.7018 -35.7001 -35.6995 -35.6860 -35.6830 -35.6826 -35.6806
   -35.6775 -35.6771 -35.6767 -35.6718 -35.6594 -35.6590 -35.6571 -35.6565
   -35.6552 -35.6546 -35.6532 -35.6526 -21.2199 -21.2127 -21.2125 -21.2120
   -21.2109 -21.2101 -21.2066 -21.2062 -21.2049 -20.8194 -20.8194 -20.8193
     9.3635   9.5725  10.6525  10.6965  11.8325  11.8707  12.5638  12.7239
    13.2787  13.3108  13.5496  13.6101  13.8369  13.9253  14.0020  14.0447
    14.5085  14.5101  14.6168  14.6732  14.7684  14.7955  14.9559  14.9819
    15.0188  15.0360  15.0553  15.1081  15.2879  15.3462  15.5551  15.6158
    15.6518  15.6805  15.7285  15.7553  15.9039  15.9086  15.9588  15.9637
    16.1424  16.1634  16.2088  16.2357  16.3622  16.3704  16.5662  16.5809
    17.8717  17.8902  17.9631  18.0083  18.0290  18.0585  18.1388  18.1744
    18.3609  18.3794  18.3950  18.4913  18.5160  18.5275  18.5703  18.6297
    18.8938  18.9323  19.5220  19.7039  20.4115  20.4753  20.6077  20.6300
    21.5048  21.8061  21.8279  22.2584  23.4992  23.5430  23.8788  23.9189
    24.6149  24.9625  25.0062  25.1337  25.1858  25.2984  26.4596  26.5012
    26.8909  27.0236  28.0993  28.1962  28.6247  28.7284  28.8160  28.9588
    29.1480  29.4321  30.1267  30.1658  30.7720  31.2909  31.3901  31.4292
    32.9058  32.9679  33.3935  33.6044  34.0013  34.2810  34.8441  35.0026
    35.1274  35.1393  35.1727  35.3349  35.7418  35.8604  36.2694  36.3094
    36.3330  36.6121  37.4434  37.4682

          k = 0.4500 0.2750 0.6750 ( 12331 PWs)   bands (ev):

   -69.5969 -69.5960 -69.5939 -69.5931 -69.5929 -69.5922 -69.5900 -69.5891
   -47.3737 -47.3735 -47.3733 -46.9675 -35.7055 -35.7050 -35.7020 -35.7008
   -35.6999 -35.6994 -35.6970 -35.6957 -35.6883 -35.6859 -35.6852 -35.6812
   -35.6771 -35.6746 -35.6736 -35.6695 -35.6631 -35.6621 -35.6590 -35.6580
   -35.6579 -35.6570 -35.6549 -35.6537 -21.2202 -21.2126 -21.2123 -21.2119
   -21.2111 -21.2104 -21.2063 -21.2061 -21.2049 -20.8194 -20.8194 -20.8193
     9.3940   9.7958  10.5538  10.6587  11.7726  11.8543  12.3802  12.6943
    13.3508  13.3867  13.5183  13.6007  13.7819  13.9215  13.9541  13.9958
    14.5667  14.5713  14.6426  14.7259  14.8073  14.8370  14.9211  14.9452
    15.0007  15.0370  15.0669  15.1392  15.2792  15.3559  15.5118  15.5805
    15.6226  15.6582  15.6788  15.7279  15.9215  15.9322  15.9728  15.9743
    16.0765  16.1127  16.2019  16.2468  16.3321  16.3644  16.5070  16.5251
    17.8935  17.9208  17.9608  18.0043  18.0334  18.0685  18.1197  18.1552
    18.3932  18.4081  18.4342  18.5219  18.5237  18.5527  18.5999  18.6488
    18.9176  18.9512  19.3334  19.6493  20.6050  20.7323  20.8790  20.9200
    21.4354  21.6875  22.0548  22.5944  23.4582  23.5066  23.6605  23.7678
    24.2585  24.7345  24.9250  25.0266  25.2051  25.3151  26.0947  26.1366
    27.2255  27.4598  28.0408  28.2997  28.3988  28.9350  28.9739  28.9971
    29.1408  29.5178  29.7713  29.8290  30.7223  31.3442  31.4991  31.6961
    32.9636  33.0462  33.1304  33.6018  33.6851  34.3188  34.4205  34.7610
    34.9868  35.4016  35.5105  35.6666  35.9770  35.9858  36.3083  36.3960
    36.4697  36.9080  37.5007  37.5497

          k = 0.4250 0.2875 0.6375 ( 12337 PWs)   bands (ev):

   -69.5967 -69.5954 -69.5943 -69.5931 -69.5929 -69.5917 -69.5906 -69.5893
   -47.3736 -47.3736 -47.3734 -46.9675 -35.7040 -35.7030 -35.7016 -35.6997
   -35.6968 -35.6959 -35.6940 -35.6918 -35.6905 -35.6888 -35.6875 -35.6844
   -35.6742 -35.6719 -35.6706 -35.6673 -35.6668 -35.6656 -35.6630 -35.6614
   -35.6591 -35.6576 -35.6565 -35.6550 -21.2205 -21.2126 -21.2121 -21.2119
   -21.2112 -21.2106 -21.2061 -21.2060 -21.2049 -20.8194 -20.8194 -20.8193
     9.4417  10.0221  10.4114  10.6331  11.7223  11.8950  12.1803  12.6376
    13.4087  13.4512  13.5043  13.6149  13.7380  13.9074  13.9228  13.9570
    14.6197  14.6260  14.6642  14.7641  14.8494  14.8728  14.8920  14.9236
    14.9721  15.0362  15.0717  15.1572  15.2671  15.3951  15.4816  15.5117
    15.6031  15.6291  15.6670  15.6919  15.9390  15.9586  15.9806  15.9969
    16.0241  16.0671  16.1925  16.2524  16.3062  16.3732  16.4528  16.4604
    17.9144  17.9441  17.9544  18.0045  18.0340  18.0758  18.1060  18.1345
    18.4217  18.4285  18.4718  18.5279  18.5438  18.5762  18.6225  18.6667
    18.9286  18.9975  19.1827  19.5902  20.7664  21.0091  21.1553  21.1818
    21.3655  21.5720  22.2271  22.9120  23.4061  23.4788  23.5016  23.6323
    23.9406  24.5153  24.8675  24.9228  25.2643  25.3603  25.7325  25.7774
    27.5686  27.8586  27.9737  28.2519  28.3946  28.8200  29.0453  29.0959
    29.3215  29.4955  29.5561  29.5692  30.7337  31.3208  31.6567  31.9395
    33.0287  33.0497  33.1439  33.4026  33.5715  33.8335  34.3113  34.4453
    35.1697  35.5452  35.6370  35.8820  36.0931  36.2911  36.4902  36.5795
    36.5957  36.7107  37.0824  37.4756

          k = 0.4000 0.3000 0.6000 ( 12326 PWs)   bands (ev):

   -69.5965 -69.5947 -69.5947 -69.5931 -69.5929 -69.5913 -69.5913 -69.5895
   -47.3736 -47.3736 -47.3734 -46.9675 -35.7028 -35.7011 -35.7011 -35.6987
   -35.6934 -35.6932 -35.6925 -35.6908 -35.6898 -35.6896 -35.6882 -35.6871
   -35.6718 -35.6700 -35.6694 -35.6692 -35.6681 -35.6667 -35.6653 -35.6651
   -35.6600 -35.6582 -35.6582 -35.6561 -21.2207 -21.2126 -21.2120 -21.2119
   -21.2112 -21.2107 -21.2059 -21.2059 -21.2049 -20.8194 -20.8194 -20.8193
     9.5064  10.2318  10.2529  10.6162  11.6860  11.9671  11.9934  12.5622
    13.4487  13.4993  13.5038  13.6342  13.7163  13.8847  13.9053  13.9300
    14.6597  14.6663  14.6848  14.7890  14.8742  14.8749  14.8977  14.9196
    14.9587  15.0277  15.0641  15.1531  15.2672  15.4488  15.4503  15.4707
    15.5713  15.6299  15.6442  15.6613  15.9525  15.9830  15.9877  15.9901
    16.0271  16.0283  16.1794  16.2427  16.2882  16.3903  16.3905  16.4183
    17.9304  17.9488  17.9621  18.0071  18.0335  18.0705  18.1034  18.1176
    18.4441  18.4465  18.4971  18.5323  18.5580  18.5888  18.6382  18.6797
    18.9354  19.0512  19.0851  19.5268  20.9061  21.2849  21.2914  21.3415
    21.4602  21.4669  22.3122  23.0857  23.3383  23.3984  23.5135  23.5215
    23.7761  24.3948  24.8051  24.8247  25.2840  25.4096  25.4180  25.4696
    27.9077  27.9213  28.1309  28.1848  28.4884  28.7684  29.0906  29.1169
    29.1681  29.3856  29.5214  29.5273  30.8158  31.3584  31.8737  31.8778
    33.1378  33.1777  33.1866  33.2779  33.3238  33.5216  34.2326  34.2634
    35.3801  35.4089  35.8344  36.1834  36.1899  36.2442  36.2553  36.6056
    36.7038  36.7693  37.1911  37.2198

          k = 0.3750 0.3125 0.5625 ( 12329 PWs)   bands (ev):

   -69.5963 -69.5952 -69.5941 -69.5931 -69.5930 -69.5919 -69.5908 -69.5897
   -47.3736 -47.3735 -47.3734 -46.9675 -35.7017 -35.7007 -35.6992 -35.6978
   -35.6953 -35.6945 -35.6925 -35.6909 -35.6889 -35.6872 -35.6862 -35.6834
   -35.6752 -35.6731 -35.6720 -35.6689 -35.6678 -35.6667 -35.6643 -35.6631
   -35.6611 -35.6599 -35.6588 -35.6573 -21.2208 -21.2126 -21.2120 -21.2119
   -21.2113 -21.2107 -21.2059 -21.2058 -21.2049 -20.8194 -20.8194 -20.8193
     9.5873  10.0610  10.4375  10.6078  11.6647  11.8044  12.0970  12.4781
    13.4674  13.5042  13.5368  13.6288  13.7364  13.8685  13.8846  13.9174
    14.6730  14.6804  14.7179  14.7973  14.8648  14.8845  14.9020  14.9292
    14.9820  15.0129  15.0436  15.1241  15.2898  15.4056  15.4660  15.5111
    15.5639  15.5854  15.6424  15.6520  15.9597  15.9708  15.9807  15.9963
    16.0291  16.0626  16.1616  16.2087  16.2797  16.3282  16.4075  16.4124
    17.9316  17.9576  17.9706  18.0113  18.0321  18.0630  18.0919  18.1182
    18.4568  18.4633  18.5010  18.5444  18.5659  18.5870  18.6476  18.6853
    18.9410  18.9910  19.1574  19.4599  21.0217  21.2228  21.3500  21.3796
    21.5682  21.7660  22.2795  22.8717  23.3467  23.4290  23.4435  23.5483
    23.9150  24.4090  24.7015  24.7805  25.0301  25.0986  25.4697  25.5108
    27.8699  28.0814  28.2520  28.2708  28.5758  28.8497  28.9227  29.1440
    29.1666  29.2950  29.3927  29.5092  30.9793  31.4555  31.7103  31.9704
    32.9885  32.9951  33.0652  33.3169  33.4492  33.7756  34.0684  34.2728
    35.2790  35.6121  35.7228  35.9716  36.1670  36.2992  36.5104  36.5653
    36.7898  36.8078  36.8456  37.5791

          k = 0.3500 0.3250 0.5250 ( 12331 PWs)   bands (ev):

   -69.5961 -69.5956 -69.5935 -69.5930 -69.5930 -69.5926 -69.5904 -69.5899
   -47.3736 -47.3735 -47.3734 -46.9675 -35.7009 -35.7005 -35.6974 -35.6969
   -35.6967 -35.6966 -35.6946 -35.6940 -35.6851 -35.6830 -35.6825 -35.6803
   -35.6782 -35.6769 -35.6765 -35.6731 -35.6648 -35.6643 -35.6621 -35.6616
   -35.6616 -35.6610 -35.6593 -35.6587 -21.2208 -21.2126 -21.2119 -21.2118
   -21.2115 -21.2107 -21.2059 -21.2058 -21.2049 -20.8194 -20.8194 -20.8193
     9.6824   9.8786  10.5667  10.6129  11.6537  11.6971  12.2345  12.3942
    13.4665  13.5027  13.5583  13.6101  13.7766  13.8536  13.8709  13.9167
    14.6681  14.6769  14.7464  14.7894  14.8396  14.8705  14.9426  14.9571
    14.9917  15.0105  15.0184  15.0815  15.3214  15.3727  15.4842  15.5374
    15.5613  15.5738  15.6432  15.6486  15.9614  15.9634  15.9752  15.9768
    16.0814  16.0995  16.1394  16.1597  16.2801  16.2889  16.4210  16.4271
    17.9322  17.9484  17.9873  18.0186  18.0304  18.0482  18.0903  18.1225
    18.4611  18.4743  18.4898  18.5573  18.5667  18.5752  18.6492  18.6845
    18.9436  18.9514  19.2595  19.3911  21.0957  21.1620  21.2642  21.2931
    21.8174  22.0781  22.1221  22.5309  23.3333  23.3802  23.5536  23.5840
    24.2228  24.5386  24.5665  24.7737  24.8132  24.8284  25.5563  25.5969
    27.8389  27.9426  28.3930  28.5465  28.6298  28.6407  29.0738  29.1364
    29.1529  29.2611  29.2940  29.4050  31.2270  31.5505  31.5965  31.7033
    32.8796  32.9384  33.0980  33.3482  33.5165  33.8443  34.2654  34.3870
    35.2020  35.3168  35.8549  36.0197  36.0791  36.3513  36.4054  36.4456
    36.7795  36.8355  37.0891  37.5377

          k = 0.3250 0.3375 0.4875 ( 12327 PWs)   bands (ev):

   -69.5960 -69.5958 -69.5932 -69.5930 -69.5930 -69.5928 -69.5901 -69.5899
   -47.3736 -47.3735 -47.3734 -46.9675 -35.7013 -35.7011 -35.6978 -35.6975
   -35.6971 -35.6968 -35.6957 -35.6954 -35.6838 -35.6816 -35.6814 -35.6813
   -35.6781 -35.6779 -35.6771 -35.6743 -35.6634 -35.6631 -35.6620 -35.6618
   -35.6602 -35.6599 -35.6590 -35.6588 -21.2207 -21.2126 -21.2119 -21.2117
   -21.2116 -21.2106 -21.2060 -21.2058 -21.2049 -20.8194 -20.8193 -20.8193
     9.6934   9.7981  10.5884  10.6252  11.6611  11.6978  12.3085  12.3948
    13.4513  13.4875  13.5580  13.6019  13.7916  13.8520  13.8794  13.9261
    14.6534  14.6618  14.7427  14.7749  14.8289  14.8610  14.9599  14.9708
    14.9855  15.0004  15.0311  15.0694  15.3254  15.3625  15.4996  15.5298
    15.5808  15.5891  15.6496  15.6536  15.9572  15.9578  15.9713  15.9716
    16.1043  16.1163  16.1348  16.1471  16.2874  16.2898  16.4372  16.4429
    17.9291  17.9413  17.9888  18.0219  18.0297  18.0442  18.0950  18.1278
    18.4542  18.4701  18.4780  18.5572  18.5609  18.5675  18.6427  18.6796
    18.9392  18.9450  19.3112  19.3869  21.0487  21.1016  21.1917  21.2093
    21.8701  22.0248  22.1645  22.3922  23.3434  23.3841  23.6006  23.6181
    24.3566  24.5323  24.6356  24.7769  24.8051  24.8241  25.6459  25.6867
    27.7682  27.8311  28.4645  28.5810  28.5923  28.6134  29.0331  29.0548
    29.2215  29.3262  29.3547  29.3628  31.2921  31.5315  31.5501  31.5614
    32.8618  32.9199  33.1947  33.3254  33.6343  33.8027  34.4368  34.4716
    35.2444  35.2775  35.8632  35.9456  35.9812  36.1287  36.4951  36.5168
    36.7660  36.8033  37.1739  37.3811

          k = 0.3000 0.3500 0.4500 ( 12332 PWs)   bands (ev):

   -69.5965 -69.5956 -69.5939 -69.5931 -69.5930 -69.5922 -69.5904 -69.5895
   -47.3736 -47.3735 -47.3734 -46.9675 -35.7030 -35.7025 -35.7000 -35.6987
   -35.6975 -35.6970 -35.6948 -35.6935 -35.6880 -35.6859 -35.6851 -35.6817
   -35.6768 -35.6745 -35.6735 -35.6699 -35.6653 -35.6644 -35.6616 -35.6606
   -35.6600 -35.6591 -35.6573 -35.6562 -21.2205 -21.2126 -21.2120 -21.2118
   -21.2113 -21.2106 -21.2061 -21.2059 -21.2049 -20.8194 -20.8194 -20.8193
     9.5257   9.9166  10.5146  10.6266  11.7029  11.7943  12.2423  12.5540
    13.4239  13.4598  13.5296  13.6094  13.7613  13.8877  13.9048  13.9458
    14.6303  14.6371  14.6940  14.7682  14.8379  14.8634  14.9157  14.9408
    14.9954  15.0185  15.0474  15.1219  15.2910  15.3779  15.4858  15.5523
    15.5893  15.6010  15.6622  15.6799  15.9456  15.9541  15.9748  15.9808
    16.0562  16.0886  16.1728  16.2142  16.3002  16.3329  16.4508  16.4607
    17.9174  17.9432  17.9702  18.0102  18.0326  18.0641  18.1010  18.1341
    18.4339  18.4440  18.4732  18.5391  18.5502  18.5716  18.6296  18.6710
    18.9335  18.9641  19.2422  19.5171  20.8708  21.0109  21.1424  21.1835
    21.5636  21.7955  22.1647  22.6999  23.3847  23.4461  23.5461  23.6388
    24.1068  24.5581  24.7656  24.8794  25.0533  25.1251  25.7347  25.7762
    27.6078  27.8163  28.2313  28.3355  28.4817  28.8599  28.9828  29.0558
    29.2294  29.4389  29.4904  29.4986  30.9123  31.4190  31.5857  31.8309
    32.9532  33.0281  33.0391  33.4930  33.5027  34.1301  34.1406  34.4831
    35.4033  35.4269  35.7421  35.7559  35.8883  36.3814  36.5083  36.5266
    36.6432  36.6711  37.0549  37.6065

          k = 0.2750 0.3625 0.4125 ( 12339 PWs)   bands (ev):

   -69.5969 -69.5953 -69.5945 -69.5931 -69.5929 -69.5915 -69.5907 -69.5891
   -47.3737 -47.3736 -47.3733 -46.9675 -35.7052 -35.7040 -35.7029 -35.7007
   -35.6970 -35.6960 -35.6942 -35.6917 -35.6916 -35.6902 -35.6888 -35.6857
   -35.6729 -35.6706 -35.6692 -35.6670 -35.6658 -35.6656 -35.6630 -35.6612
   -35.6581 -35.6564 -35.6556 -35.6538 -21.2203 -21.2126 -21.2123 -21.2119
   -21.2111 -21.2105 -21.2062 -21.2060 -21.2049 -20.8194 -20.8194 -20.8193
     9.3677  10.0465  10.3634  10.6455  11.7508  11.9630  12.1878  12.7158
    13.3805  13.4323  13.4841  13.6101  13.7345  13.9280  13.9435  13.9763
    14.5960  14.6037  14.6364  14.7505  14.8465  14.8708  14.8856  14.9171
    14.9616  15.0505  15.0887  15.1812  15.2527  15.3966  15.4836  15.4976
    15.6186  15.6562  15.6739  15.7106  15.9291  15.9577  15.9850  16.0049
    16.0126  16.0623  16.2098  16.2793  16.3174  16.4039  16.4685  16.4761
    17.9079  17.9367  17.9441  17.9996  18.0348  18.0833  18.1130  18.1400
    18.4048  18.4109  18.4600  18.5185  18.5330  18.5740  18.6113  18.6583
    18.9224  19.0153  19.1720  19.6629  20.6469  20.9398  21.0859  21.1159
    21.2317  21.4355  22.2209  22.9922  23.4269  23.4762  23.5465  23.6587
    23.9119  24.5432  24.9523  24.9888  25.4239  25.5295  25.8188  25.8672
    27.4564  27.7828  27.7974  28.2120  28.2996  28.7438  29.0898  29.1774
    29.3678  29.5832  29.5959  29.6924  30.6070  31.2498  31.6731  31.9323
    33.0749  33.1098  33.2090  33.4096  33.6201  33.7571  34.4311  34.4967
    34.9486  35.4885  35.6736  35.7842  36.1159  36.3259  36.4377  36.5070
    36.6146  36.8180  37.2491  37.3698

          k = 0.2500 0.3750 0.3750 ( 12334 PWs)   bands (ev):

   -69.5973 -69.5951 -69.5951 -69.5932 -69.5929 -69.5909 -69.5909 -69.5887
   -47.3737 -47.3736 -47.3733 -46.9675 -35.7073 -35.7055 -35.7055 -35.7025
   -35.6964 -35.6961 -35.6957 -35.6935 -35.6924 -35.6922 -35.6902 -35.6891
   -35.6701 -35.6680 -35.6669 -35.6666 -35.6655 -35.6638 -35.6619 -35.6617
   -35.6563 -35.6539 -35.6539 -35.6516 -21.2200 -21.2127 -21.2125 -21.2120
   -21.2108 -21.2104 -21.2064 -21.2062 -21.2049 -20.8194 -20.8194 -20.8193
     9.2238  10.1735  10.1926  10.6725  11.8121  12.1369  12.1614  12.8654
    13.3182  13.4164  13.4271  13.5926  13.7377  13.9730  13.9864  14.0188
    14.5449  14.5627  14.5809  14.7218  14.8419  14.8587  14.8841  14.9140
    14.9345  15.0822  15.1240  15.2248  15.2345  15.4194  15.4197  15.5051
    15.6491  15.6748  15.7199  15.7458  15.9085  15.9740  15.9754  16.0003
    16.0388  16.0401  16.2462  16.3336  16.3389  16.4852  16.4860  16.4993
    17.8988  17.9111  17.9262  17.9873  18.0362  18.0984  18.1243  18.1499
    18.3717  18.3738  18.4354  18.4990  18.5097  18.5722  18.5887  18.6408
    18.9100  19.0876  19.1174  19.8197  20.4151  20.8750  20.8790  20.9335
    21.0873  21.0936  22.2016  23.2087  23.3869  23.4696  23.6718  23.6828
    23.8985  24.5971  25.1115  25.1314  25.8125  25.9289  25.9402  25.9781
    27.3205  27.3317  27.6693  28.0765  28.1012  28.6300  29.0811  29.4338
    29.4525  29.7336  29.7387  29.9423  30.3774  31.1306  31.8007  31.8056
    33.2535  33.2882  33.3433  33.4584  33.4852  33.6597  34.5164  34.5965
    34.6184  35.2374  35.6700  35.6750  35.8959  36.3674  36.3858  36.7686
    36.7899  37.0215  37.0281  37.6187

          k = 0.2250 0.3875 0.3375 ( 12329 PWs)   bands (ev):

   -69.5977 -69.5956 -69.5948 -69.5932 -69.5928 -69.5912 -69.5903 -69.5883
   -47.3737 -47.3736 -47.3733 -46.9675 -35.7094 -35.7081 -35.7069 -35.7041
   -35.6997 -35.6988 -35.6968 -35.6945 -35.6933 -35.6931 -35.6915 -35.6875
   -35.6708 -35.6680 -35.6664 -35.6650 -35.6632 -35.6625 -35.6604 -35.6581
   -35.6546 -35.6525 -35.6515 -35.6495 -21.2197 -21.2130 -21.2125 -21.2121
   -21.2105 -21.2101 -21.2066 -21.2064 -21.2049 -20.8194 -20.8194 -20.8193
     9.0961   9.9952  10.3216  10.7064  11.8867  12.1301  12.3191  12.9827
    13.2417  13.3435  13.4384  13.5814  13.7672  14.0186  14.0350  14.0735
    14.4824  14.5048  14.5384  14.6844  14.8198  14.8571  14.8686  14.8963
    14.9527  15.1104  15.1504  15.2179  15.2703  15.3565  15.4457  15.5283
    15.6685  15.6989  15.7519  15.8058  15.8849  15.9425  16.0055  16.0177
    16.0215  16.0803  16.2822  16.3639  16.3734  16.4919  16.5419  16.5668
    17.8698  17.8991  17.9056  17.9736  18.0364  18.1009  18.1331  18.1681
    18.3314  18.3403  18.4019  18.4798  18.4853  18.5559  18.5708  18.6198
    18.8980  19.0388  19.2239  19.9841  20.1864  20.5401  20.6895  20.7539
    20.8434  21.0731  22.1293  23.0614  23.5394  23.5605  23.6987  23.8355
    24.0275  24.7248  25.2633  25.2848  25.9262  26.0328  26.3369  26.3770
    26.8746  27.2358  27.3307  27.9023  28.0564  28.6622  28.9951  29.4465
    29.4889  29.8697  30.0963  30.2089  30.2206  31.1276  31.6321  31.9101
    33.1316  33.2446  33.3853  33.5636  33.6386  33.8920  34.1184  34.6777
    34.8048  35.0897  35.2233  35.5614  35.9415  36.3328  36.3686  36.3973
    36.8447  37.2165  37.2387  37.6575

          k = 0.2000 0.4000 0.3000 ( 12345 PWs)   bands (ev):

   -69.5980 -69.5962 -69.5946 -69.5932 -69.5928 -69.5915 -69.5898 -69.5880
   -47.3737 -47.3736 -47.3732 -46.9675 -35.7114 -35.7106 -35.7084 -35.7057
   -35.7029 -35.7022 -35.6997 -35.6969 -35.6939 -35.6918 -35.6906 -35.6856
   -35.6725 -35.6693 -35.6680 -35.6634 -35.6617 -35.6598 -35.6567 -35.6546
   -35.6531 -35.6511 -35.6494 -35.6476 -21.2193 -21.2134 -21.2126 -21.2123
   -21.2102 -21.2097 -21.2069 -21.2065 -21.2048 -20.8194 -20.8194 -20.8193
     8.9857   9.8105  10.4574  10.7463  11.9727  12.1339  12.4509  13.0420
    13.1560  13.2528  13.4916  13.6112  13.8119  14.0569  14.0967  14.1377
    14.4149  14.4407  14.5007  14.6426  14.7818  14.8368  14.8569  14.8907
    14.9847  15.1224  15.1536  15.2348  15.2815  15.3417  15.4709  15.5578
    15.6524  15.7642  15.7748  15.8607  15.8641  15.9285  16.0075  16.0339
    16.0480  16.1250  16.3178  16.3909  16.4030  16.4946  16.5923  16.6385
    17.8344  17.8662  17.9047  17.9608  18.0352  18.0882  18.1437  18.1846
    18.2858  18.3091  18.3676  18.4516  18.4720  18.5241  18.5590  18.5984
    18.8855  18.9838  19.3782  19.9562  20.1626  20.2169  20.4085  20.4425
    20.8090  21.0635  22.0240  22.8163  23.6842  23.7109  23.7517  24.0162
    24.2251  24.9081  25.4031  25.4483  25.9802  26.0468  26.4924  26.6805
    26.8090  26.8793  27.2647  27.7184  28.1333  28.7789  28.8317  29.2965
    29.5199  29.9885  30.0854  30.4902  30.5462  31.2739  31.5336  31.8752
    33.1040  33.2001  33.3292  33.3589  33.7404  33.9215  34.3586  34.6380
    34.7902  35.0530  35.0862  35.4540  35.7555  35.8558  36.4252  36.4592
    36.7764  36.9866  37.3160  37.5587

          k = 0.1750 0.4125 0.2625 ( 12338 PWs)   bands (ev):

   -69.5983 -69.5967 -69.5943 -69.5933 -69.5928 -69.5917 -69.5893 -69.5877
   -47.3738 -47.3736 -47.3732 -46.9675 -35.7135 -35.7127 -35.7095 -35.7071
   -35.7057 -35.7053 -35.7028 -35.7002 -35.6930 -35.6905 -35.6893 -35.6837
   -35.6741 -35.6706 -35.6695 -35.6643 -35.6584 -35.6569 -35.6532 -35.6518
   -35.6513 -35.6499 -35.6474 -35.6458 -21.2189 -21.2138 -21.2128 -21.2123
   -21.2100 -21.2092 -21.2072 -21.2066 -21.2048 -20.8194 -20.8194 -20.8193
     8.8938   9.6337  10.5863  10.7913  12.0675  12.1608  12.5378  13.0368
    13.0672  13.1532  13.5843  13.6879  13.8683  14.0912  14.1645  14.2065
    14.3490  14.3783  14.4658  14.6000  14.7333  14.7985  14.8370  14.9111
    15.0158  15.0759  15.1572  15.2793  15.2876  15.3804  15.4882  15.5905
    15.6273  15.7958  15.8034  15.8578  15.8817  15.9758  16.0006  16.0497
    16.0991  16.1717  16.3534  16.4182  16.4282  16.4958  16.6418  16.6969
    17.7977  17.8271  17.9047  17.9525  18.0323  18.0736  18.1410  18.1926
    18.2416  18.2811  18.3360  18.4249  18.4634  18.4894  18.5439  18.5814
    18.8672  18.9382  19.5644  19.7441  19.9197  20.1068  20.1386  20.3415
    20.7934  21.0599  21.9008  22.5665  23.7460  23.8613  23.8844  24.2171
    24.4804  25.1132  25.5282  25.6184  25.8142  26.0275  26.3605  26.4029
    26.7675  27.1868  27.5419  27.6012  28.2729  28.6306  28.9499  29.0546
    29.5527  29.9982  30.0999  30.7456  30.9776  31.5455  31.5739  31.6818
    33.0242  33.1657  33.2398  33.3065  33.3664  34.1878  34.4246  34.5322
    34.7731  35.1792  35.1933  35.2177  35.3570  35.7970  36.3966  36.5356
    36.5547  36.5776  37.2790  37.3691

          k = 0.1500 0.4250 0.2250 ( 12334 PWs)   bands (ev):

   -69.5985 -69.5971 -69.5941 -69.5933 -69.5927 -69.5919 -69.5889 -69.5875
   -47.3738 -47.3736 -47.3732 -46.9675 -35.7154 -35.7149 -35.7105 -35.7083
   -35.7083 -35.7079 -35.7054 -35.7031 -35.6919 -35.6892 -35.6883 -35.6818
   -35.6758 -35.6719 -35.6711 -35.6652 -35.6555 -35.6540 -35.6505 -35.6499
   -35.6489 -35.6484 -35.6456 -35.6442 -21.2184 -21.2143 -21.2130 -21.2124
   -21.2097 -21.2088 -21.2075 -21.2067 -21.2048 -20.8194 -20.8193 -20.8193
     8.8210   9.4682  10.7033  10.8402  12.1669  12.2112  12.5864  12.9667
    13.0037  13.0497  13.7050  13.7857  13.9364  14.1220  14.2141  14.2472
    14.3160  14.3424  14.4353  14.5590  14.6803  14.7565  14.8046  14.9420
    14.9923  15.0507  15.1655  15.2844  15.3486  15.4516  15.4918  15.5850
    15.6329  15.7910  15.8145  15.8342  15.9361  15.9710  16.0688  16.0905
    16.1565  16.2190  16.3885  16.4440  16.4512  16.4969  16.6854  16.7403
    17.7601  17.7845  17.9054  17.9508  18.0280  18.0649  18.1129  18.1850
    18.2130  18.2568  18.3042  18.4038  18.4504  18.4663  18.5271  18.5711
    18.8349  18.9033  19.5424  19.6557  19.7672  19.8261  19.8478  20.5183
    20.7936  21.0621  21.7698  22.3256  23.7795  23.9368  24.1239  24.4358
    24.7687  25.3045  25.4338  25.6437  25.7916  25.9360  26.0667  26.3856
    26.7296  27.2257  27.7207  27.9194  28.4630  28.5099  28.7866  29.1563
    29.6011  29.9529  30.1947  30.9802  31.2852  31.4302  31.7892  31.9326
    32.7097  32.9933  33.1555  33.2633  33.2962  34.2094  34.2828  34.3795
    34.8823  34.9880  35.1439  35.2780  35.3380  35.6699  36.1163  36.3757
    36.4688  36.6861  37.0857  37.1709

          k = 0.1250 0.4375 0.1875 ( 12337 PWs)   bands (ev):

   -69.5987 -69.5975 -69.5938 -69.5933 -69.5927 -69.5922 -69.5884 -69.5873
   -47.3739 -47.3736 -47.3731 -46.9675 -35.7172 -35.7168 -35.7114 -35.7103
   -35.7100 -35.7096 -35.7076 -35.7059 -35.6908 -35.6878 -35.6871 -35.6801
   -35.6775 -35.6732 -35.6727 -35.6661 -35.6530 -35.6516 -35.6495 -35.6481
   -35.6472 -35.6459 -35.6439 -35.6429 -21.2179 -21.2147 -21.2133 -21.2125
   -21.2094 -21.2084 -21.2077 -21.2068 -21.2047 -20.8194 -20.8193 -20.8193
[...]
    29.1943  29.5983  30.0498  30.1166  30.4995  31.2693  31.4797  31.7124
    33.0166  33.1197  33.1433  33.6468  33.7826  34.3959  34.4812  34.6653
    34.9257  35.1744  35.2385  35.8118  35.8641  36.0394  36.2767  36.2998
    36.3150  36.9495  37.4881  37.5625

          k = 0.7500 0.4312 0.3187 ( 12337 PWs)   bands (ev):

   -69.5973 -69.5960 -69.5941 -69.5931 -69.5929 -69.5919 -69.5900 -69.5888
   -47.3737 -47.3736 -47.3733 -46.9675 -35.7077 -35.7069 -35.7043 -35.7026
   -35.7008 -35.7002 -35.6978 -35.6959 -35.6905 -35.6881 -35.6871 -35.6829
   -35.6753 -35.6726 -35.6716 -35.6672 -35.6628 -35.6616 -35.6584 -35.6569
   -35.6563 -35.6549 -35.6529 -35.6515 -21.2199 -21.2127 -21.2125 -21.2120
   -21.2108 -21.2102 -21.2065 -21.2062 -21.2049 -20.8194 -20.8194 -20.8193
     9.2501   9.8072  10.5131  10.6844  11.8335  11.9554  12.4048  12.8305
    13.2927  13.3378  13.5010  13.6050  13.7775  13.9648  13.9980  14.0378
    14.5198  14.5266  14.5916  14.7018  14.7967  14.8349  14.9000  14.9261
    14.9896  15.0661  15.0994  15.1860  15.2587  15.3489  15.5213  15.5518
    15.6658  15.6846  15.6968  15.7769  15.9004  15.9221  15.9838  15.9874
    16.0623  16.1126  16.2386  16.3003  16.3532  16.4101  16.5365  16.5639
    17.8746  17.9070  17.9420  17.9925  18.0346  18.0799  18.1316  18.1669
    18.3567  18.3752  18.4116  18.5000  18.5065  18.5464  18.5800  18.6323
    18.9066  18.9622  19.3396  19.8056  20.3807  20.5630  20.7320  20.7692
    21.2123  21.4571  22.0573  22.6930  23.5388  23.5823  23.6630  23.8451
    24.2144  24.7870  25.1022  25.1476  25.4571  25.6011  26.3148  26.3568
    26.9559  27.2818  27.7258  28.1127  28.3383  28.8574  28.9055  29.2086
    29.2229  29.6183  30.0078  30.0852  30.4760  31.2473  31.4988  31.7781
    33.0399  33.1029  33.1526  33.6495  33.7344  34.3682  34.4151  34.6582
    34.8723  35.1892  35.2807  35.8688  35.9274  36.0131  36.2926  36.3187
    36.3593  37.0092  37.4779  37.5879

          k = 0.7500 0.4250 0.3250 ( 12339 PWs)   bands (ev):

   -69.5973 -69.5959 -69.5942 -69.5932 -69.5929 -69.5918 -69.5901 -69.5887
   -47.3737 -47.3736 -47.3733 -46.9675 -35.7076 -35.7068 -35.7045 -35.7026
   -35.7003 -35.6996 -35.6973 -35.6952 -35.6911 -35.6889 -35.6877 -35.6837
   -35.6747 -35.6719 -35.6708 -35.6666 -35.6635 -35.6621 -35.6591 -35.6574
   -35.6563 -35.6548 -35.6530 -35.6515 -21.2199 -21.2127 -21.2125 -21.2120
   -21.2108 -21.2102 -21.2065 -21.2062 -21.2049 -20.8194 -20.8194 -20.8193
     9.2446   9.8493  10.4813  10.6818  11.8291  11.9711  12.3754  12.8375
    13.2981  13.3474  13.4921  13.6026  13.7695  13.9670  13.9949  14.0340
    14.5246  14.5325  14.5908  14.7061  14.8045  14.8427  14.8929  14.9206
    14.9828  15.0695  15.1044  15.1949  15.2535  15.3524  15.5156  15.5377
    15.6680  15.6864  15.6898  15.7738  15.9018  15.9269  15.9885  15.9902
    16.0504  16.1039  16.2401  16.3063  16.3504  16.4168  16.5296  16.5563
    17.8773  17.9105  17.9384  17.9914  18.0350  18.0833  18.1297  18.1643
    18.3592  18.3754  18.4162  18.5016  18.5061  18.5507  18.5825  18.6339
    18.9079  18.9724  19.3089  19.8085  20.3882  20.5968  20.7684  20.8020
    21.1767  21.4153  22.0869  22.7621  23.5387  23.5865  23.6263  23.8246
    24.1526  24.7512  25.1052  25.1436  25.4979  25.6370  26.2679  26.3107
    26.9948  27.3425  27.6812  28.1107  28.2976  28.8169  28.9382  29.2507
    29.2634  29.6366  29.9669  30.0566  30.4550  31.2260  31.5212  31.8336
    33.0641  33.0745  33.1843  33.6516  33.6876  34.2562  34.4330  34.6515
    34.8216  35.2013  35.3239  35.8748  35.9830  36.0400  36.3073  36.3289
    36.4150  37.0564  37.4572  37.6121

          k = 0.7500 0.4187 0.3312 ( 12337 PWs)   bands (ev):

   -69.5973 -69.5958 -69.5943 -69.5932 -69.5929 -69.5917 -69.5902 -69.5887
   -47.3737 -47.3736 -47.3733 -46.9675 -35.7076 -35.7066 -35.7046 -35.7025
   -35.6999 -35.6991 -35.6968 -35.6945 -35.6917 -35.6896 -35.6883 -35.6844
   -35.6740 -35.6712 -35.6701 -35.6659 -35.6641 -35.6627 -35.6598 -35.6579
   -35.6562 -35.6547 -35.6531 -35.6515 -21.2200 -21.2127 -21.2125 -21.2120
   -21.2108 -21.2103 -21.2065 -21.2062 -21.2049 -20.8194 -20.8194 -20.8193
     9.2398   9.8915  10.4480  10.6796  11.8252  11.9887  12.3462  12.8438
    13.3028  13.3570  13.4833  13.6004  13.7623  13.9689  13.9923  14.0306
    14.5291  14.5382  14.5897  14.7099  14.8120  14.8502  14.8864  14.9159
    14.9759  15.0724  15.1089  15.2031  15.2483  15.3571  15.5087  15.5255
    15.6685  15.6817  15.6917  15.7702  15.9031  15.9318  15.9920  15.9943
    16.0391  16.0953  16.2415  16.3121  16.3478  16.4242  16.5231  16.5483
    17.8801  17.9137  17.9348  17.9904  18.0353  18.0864  18.1281  18.1618
    18.3616  18.3755  18.4204  18.5024  18.5062  18.5548  18.5845  18.6353
    18.9087  18.9840  19.2792  19.8112  20.3947  20.6311  20.8040  20.8332
    21.1408  21.3738  22.1133  22.8306  23.5354  23.5863  23.5984  23.8044
    24.0949  24.7181  25.1074  25.1403  25.5401  25.6740  26.2208  26.2650
    27.0344  27.4015  27.6364  28.1087  28.2588  28.7783  28.9689  29.2794
    29.3118  29.6531  29.9277  30.0309  30.4366  31.2058  31.5470  31.8766
    33.0576  33.0914  33.2156  33.6417  33.6539  34.1451  34.4500  34.6452
    34.7743  35.2111  35.3676  35.8789  35.9505  36.1521  36.3220  36.3377
    36.4720  37.0879  37.4257  37.6345

          k = 0.7500 0.4125 0.3375 ( 12341 PWs)   bands (ev):

   -69.5973 -69.5957 -69.5945 -69.5932 -69.5929 -69.5916 -69.5903 -69.5887
   -47.3737 -47.3736 -47.3733 -46.9675 -35.7075 -35.7064 -35.7048 -35.7025
   -35.6994 -35.6986 -35.6963 -35.6938 -35.6922 -35.6904 -35.6889 -35.6851
   -35.6733 -35.6706 -35.6693 -35.6654 -35.6647 -35.6632 -35.6604 -35.6585
   -35.6563 -35.6546 -35.6533 -35.6516 -21.2200 -21.2127 -21.2125 -21.2120
   -21.2108 -21.2103 -21.2064 -21.2062 -21.2049 -20.8194 -20.8194 -20.8193
     9.2355   9.9336  10.4132  10.6777  11.8217  12.0078  12.3171  12.8494
    13.3069  13.3665  13.4745  13.5984  13.7559  13.9704  13.9903  14.0276
    14.5330  14.5434  14.5885  14.7130  14.8191  14.8570  14.8810  14.9121
    14.9689  15.0749  15.1129  15.2104  15.2434  15.3629  15.4985  15.5174
    15.6666  15.6776  15.6961  15.7664  15.9044  15.9371  15.9942  15.9997
    16.0283  16.0868  16.2427  16.3173  16.3455  16.4321  16.5172  16.5401
    17.8831  17.9164  17.9311  17.9895  18.0356  18.0894  18.1267  18.1593
    18.3638  18.3754  18.4241  18.5021  18.5069  18.5587  18.5861  18.6366
    18.9092  18.9969  19.2508  19.8134  20.4002  20.6658  20.8373  20.8639
    21.1049  21.3325  22.1365  22.8983  23.5272  23.5598  23.6022  23.7846
    24.0428  24.6881  25.1089  25.1377  25.5835  25.7118  26.1736  26.2196
    27.0745  27.4580  27.5917  28.1068  28.2216  28.7425  28.9967  29.3078
    29.3541  29.6678  29.8904  30.0082  30.4208  31.1873  31.5763  31.9049
    33.0572  33.1189  33.2453  33.5983  33.6550  34.0352  34.4657  34.6393
    34.7310  35.2190  35.4116  35.8804  35.9176  36.2627  36.3365  36.3456
    36.5291  37.1019  37.3839  37.6546

          k = 0.7500 0.4062 0.3437 ( 12337 PWs)   bands (ev):

   -69.5973 -69.5956 -69.5946 -69.5932 -69.5929 -69.5915 -69.5904 -69.5887
   -47.3737 -47.3736 -47.3733 -46.9675 -35.7075 -35.7063 -35.7049 -35.7025
   -35.6989 -35.6980 -35.6958 -35.6931 -35.6927 -35.6911 -35.6895 -35.6858
   -35.6725 -35.6699 -35.6685 -35.6653 -35.6647 -35.6638 -35.6611 -35.6590
   -35.6563 -35.6545 -35.6534 -35.6516 -21.2200 -21.2127 -21.2125 -21.2120
   -21.2108 -21.2103 -21.2064 -21.2062 -21.2049 -20.8194 -20.8194 -20.8193
     9.2320   9.9757  10.3772  10.6761  11.8188  12.0284  12.2882  12.8542
    13.3104  13.3758  13.4658  13.5967  13.7504  13.9715  13.9887  14.0250
    14.5365  14.5483  14.5872  14.7157  14.8255  14.8622  14.8774  14.9093
    14.9619  15.0771  15.1163  15.2168  15.2389  15.3698  15.4856  15.5127
    15.6626  15.6759  15.7011  15.7622  15.9056  15.9425  15.9961  16.0056
    16.0181  16.0785  16.2438  16.3219  16.3435  16.4404  16.5118  16.5316
    17.8861  17.9185  17.9277  17.9888  18.0358  18.0921  18.1256  18.1570
    18.3658  18.3753  18.4274  18.5015  18.5077  18.5624  18.5873  18.6379
    18.9096  19.0111  19.2235  19.8154  20.4048  20.7008  20.8654  20.8963
    21.0692  21.2914  22.1562  22.9646  23.5124  23.5340  23.6112  23.7652
    23.9976  24.6617  25.1100  25.1356  25.6278  25.7503  26.1264  26.1748
    27.1152  27.5106  27.5479  28.1050  28.1863  28.7103  29.0213  29.3356
    29.3897  29.6808  29.8555  29.9885  30.4075  31.1708  31.6088  31.9176
    33.0735  33.1476  33.2727  33.5565  33.6560  33.9274  34.4798  34.6338
    34.6924  35.2251  35.4556  35.8681  35.8959  36.3481  36.3522  36.3730
    36.5855  37.0993  37.3324  37.6722

          k = 0.7500 0.4000 0.3500 ( 12334 PWs)   bands (ev):

   -69.5973 -69.5955 -69.5947 -69.5932 -69.5929 -69.5914 -69.5905 -69.5887
   -47.3737 -47.3736 -47.3733 -46.9675 -35.7074 -35.7061 -35.7050 -35.7025
   -35.6984 -35.6974 -35.6954 -35.6931 -35.6924 -35.6917 -35.6901 -35.6866
   -35.6718 -35.6693 -35.6678 -35.6660 -35.6644 -35.6641 -35.6617 -35.6596
   -35.6562 -35.6544 -35.6535 -35.6516 -21.2200 -21.2127 -21.2125 -21.2120
   -21.2108 -21.2103 -21.2064 -21.2062 -21.2049 -20.8194 -20.8194 -20.8193
     9.2290  10.0176  10.3402  10.6748  11.8164  12.0502  12.2597  12.8582
    13.3132  13.3851  13.4572  13.5953  13.7459  13.9723  13.9876  14.0228
    14.5395  14.5527  14.5857  14.7179  14.8311  14.8638  14.8775  14.9078
    14.9549  15.0789  15.1191  15.2220  15.2352  15.3779  15.4719  15.5097
    15.6582  15.6753  15.7061  15.7580  15.9066  15.9482  15.9976  16.0083
    16.0118  16.0703  16.2447  16.3260  16.3419  16.4491  16.5072  16.5229
    17.8892  17.9192  17.9252  17.9883  18.0359  18.0943  18.1249  18.1548
    18.3676  18.3751  18.4302  18.5008  18.5084  18.5656  18.5881  18.6389
    18.9098  19.0265  19.1974  19.8169  20.4085  20.7361  20.8873  20.9306
    21.0344  21.2506  22.1725  23.0291  23.4908  23.5120  23.6220  23.7464
    23.9606  24.6392  25.1107  25.1339  25.6725  25.7895  26.0796  26.1304
    27.1564  27.5013  27.5617  28.1034  28.1535  28.6826  29.0422  29.3623
    29.4177  29.6924  29.8237  29.9722  30.3966  31.1568  31.6443  31.9152
    33.1058  33.1772  33.2967  33.5174  33.6567  33.8224  34.4921  34.6289
    34.6593  35.2299  35.4995  35.8345  35.8935  36.3570  36.3620  36.4771
    36.6403  37.0835  37.2726  37.6705

          k = 0.7500 0.3937 0.3562 ( 12332 PWs)   bands (ev):

   -69.5973 -69.5954 -69.5948 -69.5932 -69.5929 -69.5912 -69.5906 -69.5887
   -47.3737 -47.3736 -47.3733 -46.9675 -35.7074 -35.7059 -35.7051 -35.7024
   -35.6979 -35.6968 -35.6953 -35.6933 -35.6923 -35.6917 -35.6907 -35.6873
   -35.6712 -35.6687 -35.6671 -35.6666 -35.6649 -35.6636 -35.6624 -35.6601
   -35.6563 -35.6542 -35.6536 -35.6516 -21.2200 -21.2127 -21.2125 -21.2120
   -21.2108 -21.2104 -21.2064 -21.2062 -21.2049 -20.8194 -20.8194 -20.8193
     9.2267  10.0592  10.3022  10.6738  11.8145  12.0730  12.2317  12.8614
    13.3154  13.3941  13.4486  13.5941  13.7424  13.9727  13.9869  14.0211
    14.5418  14.5566  14.5841  14.7196  14.8357  14.8624  14.8801  14.9079
    14.9481  15.0803  15.1213  15.2253  15.2329  15.3869  15.4582  15.5077
    15.6544  15.6750  15.7110  15.7538  15.9074  15.9543  15.9987  15.9992
    16.0183  16.0623  16.2453  16.3292  16.3406  16.4580  16.5034  16.5141
    17.8923  17.9175  17.9249  17.9879  18.0361  18.0961  18.1245  18.1528
    18.3691  18.3748  18.4325  18.5001  18.5090  18.5683  18.5885  18.6397
    18.9099  19.0429  19.1727  19.8182  20.4114  20.7716  20.9032  20.9615
    21.0053  21.2100  22.1853  23.0904  23.4631  23.4938  23.6340  23.7282
    23.9325  24.6211  25.1111  25.1328  25.7168  25.8292  26.0337  26.0868
    27.1981  27.4574  27.6043  28.1020  28.1241  28.6602  29.0589  29.3872
    29.4377  29.7029  29.7954  29.9593  30.3882  31.1455  31.6824  31.8998
    33.1509  33.2074  33.3164  33.4821  33.6562  33.7221  34.5023  34.6246
    34.6325  35.2333  35.5433  35.7959  35.8943  36.3617  36.3719  36.5770
    36.6923  37.0592  37.2063  37.6483

          k = 0.7500 0.3875 0.3625 ( 12329 PWs)   bands (ev):

   -69.5973 -69.5953 -69.5949 -69.5932 -69.5929 -69.5911 -69.5907 -69.5887
   -47.3737 -47.3736 -47.3733 -46.9675 -35.7073 -35.7058 -35.7053 -35.7024
   -35.6973 -35.6963 -35.6955 -35.6932 -35.6928 -35.6912 -35.6911 -35.6880
   -35.6706 -35.6680 -35.6672 -35.6664 -35.6656 -35.6630 -35.6630 -35.6607
   -35.6562 -35.6541 -35.6537 -35.6516 -21.2200 -21.2127 -21.2125 -21.2120
   -21.2108 -21.2104 -21.2064 -21.2062 -21.2049 -20.8194 -20.8194 -20.8193
     9.2251  10.1006  10.2634  10.6731  11.8132  12.0967  12.2044  12.8636
    13.3169  13.4030  13.4401  13.5933  13.7398  13.9729  13.9865  14.0199
    14.5435  14.5597  14.5825  14.7208  14.8391  14.8605  14.8825  14.9098
    14.9418  15.0813  15.1228  15.2259  15.2330  15.3969  15.4448  15.5063
    15.6515  15.6749  15.7154  15.7499  15.9080  15.9607  15.9905  15.9996
    16.0251  16.0545  16.2458  16.3317  16.3397  16.4672  16.5001  16.5055
    17.8953  17.9147  17.9255  17.9876  18.0361  18.0974  18.1243  18.1513
    18.3704  18.3744  18.4341  18.4995  18.5094  18.5704  18.5887  18.6404
    18.9099  19.0602  19.1495  19.8190  20.4135  20.8071  20.9126  20.9552
    21.0161  21.1698  22.1944  23.1461  23.4312  23.4804  23.6472  23.7107
    23.9133  24.6079  25.1114  25.1320  25.7593  25.8689  25.9903  26.0442
    27.2402  27.4135  27.6386  28.0971  28.1038  28.6436  29.0711  29.4092
    29.4493  29.7129  29.7714  29.9499  30.3822  31.1373  31.7223  31.8740
    33.2014  33.2384  33.3310  33.4543  33.6215  33.6617  34.5100  34.6128
    34.6213  35.2356  35.5868  35.7558  35.8952  36.3649  36.3795  36.6676
    36.7391  37.0327  37.1369  37.6320

          k = 0.7500 0.3812 0.3687 ( 12335 PWs)   bands (ev):

   -69.5973 -69.5952 -69.5950 -69.5931 -69.5929 -69.5910 -69.5908 -69.5887
   -47.3737 -47.3736 -47.3733 -46.9675 -35.7073 -35.7057 -35.7054 -35.7025
   -35.6968 -35.6958 -35.6958 -35.6933 -35.6928 -35.6918 -35.6905 -35.6886
   -35.6701 -35.6677 -35.6674 -35.6661 -35.6658 -35.6635 -35.6624 -35.6613
   -35.6563 -35.6540 -35.6538 -35.6516 -21.2200 -21.2127 -21.2125 -21.2120
   -21.2108 -21.2104 -21.2064 -21.2062 -21.2049 -20.8194 -20.8194 -20.8193
     9.2241  10.1412  10.2244  10.6727  11.8124  12.1205  12.1785  12.8650
    13.3179  13.4113  13.4321  13.5928  13.7383  13.9730  13.9864  14.0191
    14.5446  14.5619  14.5813  14.7215  14.8412  14.8592  14.8837  14.9125
    14.9367  15.0819  15.1237  15.2252  15.2341  15.4078  15.4318  15.5055
    15.6497  15.6748  15.7186  15.7470  15.9084  15.9674  15.9824  16.0001
    16.0321  16.0469  16.2461  16.3331  16.3391  16.4764  16.4944  16.5002
    17.8977  17.9122  17.9260  17.9874  18.0362  18.0982  18.1243  18.1503
    18.3713  18.3740  18.4351  18.4991  18.5096  18.5717  18.5888  18.6407
    18.9100  19.0772  19.1288  19.8196  20.4147  20.8425  20.9060  20.9361
    21.0517  21.1299  22.1998  23.1902  23.4010  23.4723  23.6611  23.6943
    23.9021  24.5998  25.1115  25.1315  25.7956  25.9073  25.9536  26.0038
    27.2827  27.3699  27.6613  28.0823  28.1015  28.6334  29.0786  29.4262
    29.4530  29.7235  29.7519  29.9442  30.3786  31.1322  31.7630  31.8409
    33.2403  33.2711  33.3400  33.4434  33.5386  33.6599  34.5148  34.6006
    34.6191  35.2370  35.6298  35.7146  35.8957  36.3668  36.3842  36.7390
    36.7751  37.0148  37.0714  37.6221

          k = 0.7500 0.3750 0.3750 ( 12334 PWs)   bands (ev):

   -69.5973 -69.5951 -69.5951 -69.5932 -69.5929 -69.5909 -69.5909 -69.5887
   -47.3737 -47.3736 -47.3733 -46.9675 -35.7073 -35.7055 -35.7055 -35.7025
   -35.6964 -35.6961 -35.6957 -35.6935 -35.6924 -35.6922 -35.6902 -35.6891
   -35.6701 -35.6680 -35.6669 -35.6666 -35.6655 -35.6638 -35.6619 -35.6617
   -35.6563 -35.6539 -35.6539 -35.6516 -21.2200 -21.2127 -21.2125 -21.2120
   -21.2108 -21.2104 -21.2064 -21.2062 -21.2049 -20.8194 -20.8194 -20.8193
     9.2238  10.1735  10.1926  10.6725  11.8121  12.1369  12.1614  12.8654
    13.3182  13.4164  13.4271  13.5926  13.7377  13.9730  13.9864  14.0188
    14.5449  14.5627  14.5809  14.7218  14.8419  14.8587  14.8841  14.9140
    14.9345  15.0822  15.1240  15.2248  15.2345  15.4194  15.4197  15.5051
    15.6491  15.6748  15.7199  15.7458  15.9085  15.9740  15.9754  16.0003
    16.0388  16.0401  16.2462  16.3336  16.3389  16.4852  16.4860  16.4993
    17.8988  17.9111  17.9262  17.9873  18.0362  18.0984  18.1243  18.1499
    18.3717  18.3738  18.4354  18.4990  18.5097  18.5722  18.5887  18.6408
    18.9100  19.0876  19.1174  19.8197  20.4151  20.8750  20.8790  20.9335
    21.0873  21.0936  22.2016  23.2087  23.3869  23.4696  23.6718  23.6828
    23.8985  24.5971  25.1115  25.1314  25.8125  25.9289  25.9402  25.9781
    27.3205  27.3317  27.6693  28.0765  28.1012  28.6300  29.0811  29.4338
    29.4525  29.7336  29.7387  29.9423  30.3774  31.1306  31.8007  31.8056
    33.2535  33.2882  33.3433  33.4584  33.4852  33.6597  34.5164  34.5965
    34.6184  35.2374  35.6700  35.6750  35.8959  36.3674  36.3858  36.7686
    36.7899  37.0215  37.0281  37.6187

     Writing all to output data dir ./work/pwscf.save/

     init_run     :      1.12s CPU      1.24s WALL (       1 calls)
     electrons    :    351.02s CPU    362.15s WALL (       1 calls)

     Called by init_run:
     wfcinit      :      0.00s CPU      0.00s WALL (       1 calls)
     wfcinit:atom :      0.12s CPU      0.14s WALL (     101 calls)
     wfcinit:wfcr :     18.00s CPU     18.90s WALL (     101 calls)
     potinit      :      0.46s CPU      0.50s WALL (       1 calls)
     hinit0       :      0.40s CPU      0.40s WALL (       1 calls)

     Called by electrons:
     c_bands      :    351.01s CPU    362.13s WALL (       1 calls)
     v_of_rho     :      0.02s CPU      0.03s WALL (       1 calls)
     v_h          :      0.00s CPU      0.00s WALL (       1 calls)
     v_xc         :      0.02s CPU      0.03s WALL (       1 calls)
     newd         :      0.19s CPU      0.26s WALL (       1 calls)
     PAW_pot      :      0.15s CPU      0.15s WALL (       1 calls)

     Called by c_bands:
     init_us_2    :      0.11s CPU      0.13s WALL (     101 calls)
     init_us_2:cp :      0.11s CPU      0.13s WALL (     101 calls)
     cegterg      :    331.39s CPU    340.85s WALL (     169 calls)

     Called by sum_band:

     Called by *egterg:
     cdiaghg      :     71.26s CPU     72.09s WALL (    2478 calls)
     cegterg:over :     44.27s CPU     44.78s WALL (    2377 calls)
     cegterg:upda :     24.94s CPU     25.17s WALL (    2377 calls)
     cegterg:last :     61.13s CPU     61.93s WALL (     961 calls)
     cdiaghg:chol :      3.65s CPU      3.67s WALL (    2478 calls)
     cdiaghg:inve :      0.88s CPU      0.88s WALL (    2478 calls)
     cdiaghg:para :     14.94s CPU     15.34s WALL (    4956 calls)
     h_psi        :    119.01s CPU    126.58s WALL (    2647 calls)
     s_psi        :     15.30s CPU     15.54s WALL (    2647 calls)
     g_psi        :      0.79s CPU      0.80s WALL (    2377 calls)

     Called by h_psi:
     h_psi:calbec :     22.36s CPU     23.21s WALL (    2647 calls)
     vloc_psi     :     79.10s CPU     85.66s WALL (    2647 calls)
     add_vuspsi   :     16.62s CPU     16.73s WALL (    2647 calls)

     General routines
     calbec       :     22.35s CPU     23.20s WALL (    2647 calls)
     fft          :      0.27s CPU      0.27s WALL (      13 calls)
     ffts         :      0.27s CPU      0.27s WALL (       1 calls)
     fftw         :     73.31s CPU     79.38s WALL (  355466 calls)
     interpolate  :      0.27s CPU      0.27s WALL (       1 calls)

     Parallel routines

     PAW routines
     PAW_pot      :      0.15s CPU      0.15s WALL (       1 calls)

     PWSCF        :   5m54.59s CPU   6m29.82s WALL


   This run was terminated on:  20:17:52  21Sep2023            

=------------------------------------------------------------------------------=
   JOB DONE.
=------------------------------------------------------------------------------=
