<UPF version="2.0.1">
  <PP_INFO>
    Generated using "atomic" code by A. Dal Corso  v.7.2
    Author: ADC
    Generation date: 20Sep2023
    Pseudopotential type: USPP
    Element: Cr
    Functional: PBE
    Suggested minimum cutoff for wavefunctions:  48. Ry
    Suggested minimum cutoff for charge density: 457. Ry
    The Pseudo was generated with a Fully-Relativistic Calculation
    Local Potential by smoothing AE potential with Bessel fncs, cutoff radius:   1.4000
    Pseudopotential contains additional information for spin-orbit calculations.
    Valence configuration: 
    nl pn  l   occ       Rcut    Rcut US       E pseu
    3S  1  0  2.00      0.750      1.530    -5.725531
    4S  2  0  2.00      0.750      1.530    -0.360673
    3P  2  1  2.00      1.000      1.350    -3.667945
    3P  2  1  4.00      1.000      1.350    -3.591933
    3D  3  2  4.00      1.100      1.650    -0.442030
    3D  3  2  0.00      1.100      1.650    -0.435483
    Generation configuration:
    3S  1  0  2.00      0.750      1.530    -5.725533
    4S  2  0  2.00      0.750      1.530    -0.360675
    3P  2  1  2.00      1.000      1.350    -3.667944
    3P  2  1  4.00      1.000      1.350    -3.591927
    4P  3  1  0.00      1.000      1.350     7.000000
    4P  3  1  0.00      1.000      1.350     7.000000
    3D  3  2  4.00      1.100      1.650    -0.442031
    3D  3  2  0.00      1.100      1.650    -0.435478
    3D  3  2  0.00      1.100      1.650     0.050000
    3D  3  2  0.00      1.100      1.650     0.050000
    Pseudization used: troullier-martins
    <PP_INPUTFILE>
@input
title='Cr',
zed=24.,
rel=2,
config='[Ar] 4s2 4p0 3d4',
iswitch=3,
dft='PBE'
/
@inputp
lpaw=.false.,
pseudotype=3,
file_pseudopw='Cr.rel-pbe-spn-rrkjus_psl.1.0.0.UPF',
author='ADC',
lloc=-1,
rcloc=1.4,
which_augfun='PSQ',
rmatch_augfun_nc=.true.,
nlcc=.true.,
new_core_ps=.true.,
rcore=0.8,
tm=.true.
/
6
3S  1  0  2.00  0.00  0.75  1.53  0.0
4S  2  0  2.00  0.00  0.75  1.53  0.0
3P  2  1  6.00  0.00  1.00  1.35  0.0
4P  3  1  0.00  7.00  1.00  1.35  0.0
3D  3  2  4.00  0.00  1.10  1.65  0.0
3D  3  2  0.00  0.05  1.10  1.65  0.0
    </PP_INPUTFILE>
  </PP_INFO>
    <!-- END OF HUMAN READABLE SECTION -->
  <PP_HEADER generated="Generated using 'atomic' code by A. Dal Corso  v.7.2" author="ADC" date="20Sep2023" comment="" element="Cr" pseudo_type="USPP" relativistic="full" is_ultrasoft="true" is_paw="false" is_coulomb="false" has_so="true" has_wfc="false" has_gipaw="false" paw_as_gipaw="false" core_correction="true" functional="PBE" z_valence="14.000000000000000" total_psenergy="-174.30869041031821" wfc_cutoff="48.028080825693614" rho_cutoff="456.58387939212139" l_max="2" l_max_rho="4" l_local="-1" mesh_size="1183" number_of_wfc="6" number_of_proj="10"/>
  <PP_MESH mesh="1183" dx="1.2500000000000001E-002" xmin="-7.0000000000000000" rmax="100.00000000000000" zmesh="24.000000000000000">
    <PP_R>
   3.799508189810485E-05   3.847300119454260E-05   3.895693197569092E-05
   3.944694985671892E-05   3.994313140391749E-05   4.044555414666287E-05
   4.095429658953078E-05   4.146943822456297E-05   4.199105954368794E-05
   4.251924205129811E-05   4.305406827698487E-05   4.359562178843411E-05
   4.414398720448376E-05   4.469925020834570E-05   4.526149756099408E-05
   4.583081711472160E-05   4.640729782686680E-05   4.699102977371385E-05
   4.758210416456698E-05   4.818061335600240E-05   4.878665086629894E-05
   4.940031139005053E-05   5.002169081296253E-05   5.065088622683395E-05
   5.128799594472837E-05   5.193311951633540E-05   5.258635774352561E-05
   5.324781269610102E-05   5.391758772774367E-05   5.459578749216501E-05
   5.528251795945798E-05   5.597788643265528E-05   5.668200156449558E-05
   5.739497337440071E-05   5.811691326566661E-05   5.884793404287007E-05
   5.958814992949477E-05   6.033767658577898E-05   6.109663112678763E-05
   6.186513214071195E-05   6.264329970739885E-05   6.343125541711382E-05
   6.422912238953960E-05   6.503702529301384E-05   6.585509036400904E-05
   6.668344542685684E-05   6.752221991372111E-05   6.837154488482191E-05
   6.923155304891392E-05   7.010237878402255E-05   7.098415815844058E-05
   7.187702895198926E-05   7.278113067754666E-05   7.369660460284669E-05
   7.462359377255290E-05   7.556224303060896E-05   7.651269904287113E-05
   7.747511032002505E-05   7.844962724079073E-05   7.943640207541985E-05
   8.043558900948788E-05   8.144734416798612E-05   8.247182563971652E-05
   8.350919350199329E-05   8.455960984565558E-05   8.562323880039412E-05
   8.670024656039705E-05   8.779080141031808E-05   8.889507375157117E-05
   9.001323612895644E-05   9.114546325762021E-05   9.229193205035487E-05
   9.345282164524181E-05   9.462831343364196E-05   9.581859108853901E-05
   9.702384059323808E-05   9.824425027042638E-05   9.948001081159889E-05
   1.007313153068543E-04   1.019983592750660E-04   1.032813406944316E-04
   1.045804600334083E-04   1.058959202820358E-04   1.072279269836542E-04
   1.085766882670208E-04   1.099424148788301E-04   1.113253202166438E-04
   1.127256203622344E-04   1.141435341153487E-04   1.155792830278954E-04
   1.170330914385630E-04   1.185051865078736E-04   1.199957982536768E-04
   1.215051595870903E-04   1.230335063488936E-04   1.245810773463775E-04
   1.261481143906590E-04   1.277348623344643E-04   1.293415691103879E-04
   1.309684857696325E-04   1.326158665212361E-04   1.342839687717928E-04
   1.359730531656729E-04   1.376833836257492E-04   1.394152273946363E-04
   1.411688550764463E-04   1.429445406790723E-04   1.447425616570022E-04
   1.465631989546720E-04   1.484067370503637E-04   1.502734640006554E-04
   1.521636714854310E-04   1.540776548534555E-04   1.560157131685242E-04
   1.579781492561920E-04   1.599652697510901E-04   1.619773851448388E-04
   1.640148098345618E-04   1.660778621720121E-04   1.681668645133149E-04
   1.702821432693361E-04   1.724240289566849E-04   1.745928562493575E-04
   1.767889640310309E-04   1.790126954480142E-04   1.812643979628654E-04
   1.835444234086836E-04   1.858531280440834E-04   1.881908726088611E-04
   1.905580223803614E-04   1.929549472305519E-04   1.953820216838171E-04
   1.978396249754782E-04   2.003281411110494E-04   2.028479589262401E-04
   2.053994721477105E-04   2.079830794545924E-04   2.105991845407839E-04
   2.132481961780271E-04   2.159305282797802E-04   2.186465999658910E-04
   2.213968356280865E-04   2.241816649962842E-04   2.270015232057385E-04
   2.298568508650321E-04   2.327480941249208E-04   2.356757047480462E-04
   2.386401401795244E-04   2.416418636184226E-04   2.446813440901355E-04
   2.477590565196706E-04   2.508754818058566E-04   2.540311068964849E-04
   2.572264248643959E-04   2.604619349845234E-04   2.637381428119061E-04
   2.670555602606826E-04   2.704147056840786E-04   2.738161039554005E-04
   2.772602865500489E-04   2.807477916285611E-04   2.842791641207012E-04
   2.878549558106055E-04   2.914757254230004E-04   2.951420387105052E-04
   2.988544685420291E-04   3.026135949922871E-04   3.064200054324348E-04
   3.102742946218474E-04   3.141770648010532E-04   3.181289257858317E-04
   3.221304950625029E-04   3.261823978844072E-04   3.302852673696039E-04
   3.344397445997984E-04   3.386464787205088E-04   3.429061270425013E-04
   3.472193551444921E-04   3.515868369771471E-04   3.560092549683895E-04
   3.604873001300264E-04   3.650216721657262E-04   3.696130795803441E-04
   3.742622397906298E-04   3.789698792373260E-04   3.837367334986725E-04
   3.885635474053469E-04   3.934510751568421E-04   3.984000804393127E-04
   4.034113365449039E-04   4.084856264925762E-04   4.136237431504588E-04
   4.188264893597328E-04   4.240946780600778E-04   4.294291324166979E-04
   4.348306859489377E-04   4.403001826605273E-04   4.458384771714553E-04
   4.514464348515063E-04   4.571249319554787E-04   4.628748557600961E-04
   4.686971047026527E-04   4.745925885213907E-04   4.805622283976509E-04
   4.866069570998105E-04   4.927277191290257E-04   4.989254708668175E-04
   5.052011807245041E-04   5.115558292945182E-04   5.179904095036289E-04
   5.245059267680833E-04   5.311033991507112E-04   5.377838575199947E-04
   5.445483457111450E-04   5.513979206892059E-04   5.583336527142012E-04
   5.653566255083722E-04   5.724679364255059E-04   5.796686966224008E-04
   5.869600312324890E-04   5.943430795416356E-04   6.018189951661617E-04
   6.093889462330926E-04   6.170541155626834E-04   6.248157008532382E-04
   6.326749148682477E-04   6.406329856258930E-04   6.486911565909204E-04
   6.568506868689369E-04   6.651128514031509E-04   6.734789411735781E-04
   6.819502633987678E-04   6.905281417400522E-04   6.992139165083733E-04
   7.080089448737118E-04   7.169146010771410E-04   7.259322766455631E-04
   7.350633806091318E-04   7.443093397214181E-04   7.536715986823463E-04
   7.631516203639241E-04   7.727508860388286E-04   7.824708956118504E-04
   7.923131678542607E-04   8.022792406411221E-04   8.123706711915831E-04
   8.225890363121992E-04   8.329359326433096E-04   8.434129769085163E-04
   8.540218061673025E-04   8.647640780708226E-04   8.756414711209179E-04
   8.866556849323823E-04   8.978084404985321E-04   9.091014804601155E-04
   9.205365693776018E-04   9.321154940069000E-04   9.438400635785405E-04
   9.557121100803721E-04   9.677334885438157E-04   9.799060773337128E-04
   9.922317784418282E-04   1.004712517784036E-03   1.017350245501251E-03
   1.030146936264142E-03   1.043104589581673E-03   1.056225230113539E-03
   1.069510907986518E-03   1.082963699114806E-03   1.096585705524388E-03
   1.110379055681479E-03   1.124345904825104E-03   1.138488435303857E-03
   1.152808856916899E-03   1.167309407259243E-03   1.181992352071379E-03
   1.196859985593310E-03   1.211914630923020E-03   1.227158640379470E-03
   1.242594395870155E-03   1.258224309263271E-03   1.274050822764587E-03
   1.290076409299037E-03   1.306303572897120E-03   1.322734849086165E-03
   1.339372805286503E-03   1.356220041212643E-03   1.373279189279474E-03
   1.390552915013587E-03   1.408043917469773E-03   1.425754929652751E-03
   1.443688718944209E-03   1.461848087535210E-03   1.480235872864040E-03
   1.498854948059569E-03   1.517708222390176E-03   1.536798641718334E-03
   1.556129188960901E-03   1.575702884555212E-03   1.595522786931028E-03
   1.615591992988417E-03   1.635913638581659E-03   1.656490899009221E-03
   1.677326989509910E-03   1.698425165765259E-03   1.719788724408231E-03
   1.741421003538330E-03   1.763325383243180E-03   1.785505286126674E-03
   1.807964177843766E-03   1.830705567641976E-03   1.853733008909730E-03
   1.877050099731576E-03   1.900660483450392E-03   1.924567849236672E-03
   1.948775932664957E-03   1.973288516297539E-03   1.998109430275478E-03
   2.023242552917082E-03   2.048691811323899E-03   2.074461181994331E-03
   2.100554691444974E-03   2.126976416839767E-03   2.153730486627059E-03
   2.180821081184683E-03   2.208252433473158E-03   2.236028829697089E-03
   2.264154609974896E-03   2.292634169016969E-03   2.321471956812350E-03
   2.350672479324056E-03   2.380240299193137E-03   2.410180036451604E-03
   2.440496369244315E-03   2.471194034559947E-03   2.502277828971165E-03
   2.533752609384082E-03   2.565623293797177E-03   2.597894862069728E-03
   2.630572356699932E-03   2.663660883612815E-03   2.697165612958023E-03
   2.731091779917682E-03   2.765444685524402E-03   2.800229697489573E-03
   2.835452251042092E-03   2.871117849777608E-03   2.907232066518486E-03
   2.943800544184568E-03   2.980828996674884E-03   3.018323209760477E-03
   3.056289041988422E-03   3.094732425597246E-03   3.133659367443851E-03
   3.173075949942097E-03   3.212988332013196E-03   3.253402750048049E-03
   3.294325518881695E-03   3.335763032780024E-03   3.377721766438885E-03
   3.420208275995783E-03   3.463229200054273E-03   3.506791260721267E-03
   3.550901264657370E-03   3.595566104140437E-03   3.640792758142516E-03
   3.686588293420305E-03   3.732959865619363E-03   3.779914720392190E-03
   3.827460194530371E-03   3.875603717110979E-03   3.924352810657362E-03
   3.973715092314569E-03   4.023698275039536E-03   4.074310168806252E-03
   4.125558681826096E-03   4.177451821783490E-03   4.229997697087129E-03
   4.283204518136935E-03   4.337080598606944E-03   4.391634356744347E-03
   4.446874316684842E-03   4.502809109784555E-03   4.559447475968707E-03
   4.616798265097249E-03   4.674870438347655E-03   4.733673069615157E-03
   4.793215346930518E-03   4.853506573895709E-03   4.914556171137607E-03
   4.976373677779984E-03   5.038968752934029E-03   5.102351177207581E-03
   5.166530854233387E-03   5.231517812216555E-03   5.297322205501483E-03
   5.363954316158510E-03   5.431424555590487E-03   5.499743466159595E-03
   5.568921722834605E-03   5.638970134858863E-03   5.709899647439270E-03
   5.781721343456471E-03   5.854446445196591E-03   5.928086316104736E-03
   6.002652462560553E-03   6.078156535676143E-03   6.154610333116536E-03
   6.232025800943130E-03   6.310415035480278E-03   6.389790285205353E-03
   6.470163952662626E-03   6.551548596401152E-03   6.633956932937098E-03
   6.717401838740703E-03   6.801896352248267E-03   6.887453675899440E-03
   6.974087178200107E-03   7.061810395811258E-03   7.150637035664119E-03
   7.240580977101881E-03   7.331656274048397E-03   7.423877157204104E-03
   7.517258036269619E-03   7.611813502197282E-03   7.707558329471012E-03
   7.804507478414877E-03   7.902676097530639E-03   8.002079525864758E-03
   8.102733295405153E-03   8.204653133508086E-03   8.307854965355632E-03
   8.412354916443978E-03   8.518169315103087E-03   8.625314695048033E-03
   8.733807797962409E-03   8.843665576114296E-03   8.954905195005027E-03
   9.067544036051376E-03   9.181599699301416E-03   9.297090006184576E-03
   9.414033002296287E-03   9.532446960217605E-03   9.652350382370370E-03
   9.773762003908242E-03   9.896700795644088E-03   1.002118596701426E-02
   1.014723696908003E-02   1.027487349756694E-02   1.040411549594224E-02
   1.053498315853110E-02   1.066749693367209E-02   1.080167752691215E-02
   1.093754590424197E-02   1.107512329537195E-02   1.121443119704933E-02
   1.135549137641719E-02   1.149832587441555E-02   1.164295700922531E-02
   1.178940737975554E-02   1.193769986917459E-02   1.208785764848564E-02
   1.223990418014721E-02   1.239386322173920E-02   1.254975882967510E-02
   1.270761536296080E-02   1.286745748700083E-02   1.302931017745224E-02
   1.319319872412722E-02   1.335914873494462E-02   1.352718613993124E-02
   1.369733719527351E-02   1.386962848741999E-02   1.404408693723560E-02
   1.422073980420808E-02   1.439961469070727E-02   1.458073954629814E-02
   1.476414267210787E-02   1.494985272524799E-02   1.513789872329215E-02
   1.532831004881010E-02   1.552111645395888E-02   1.571634806513154E-02
   1.591403538766455E-02   1.611420931060423E-02   1.631690111153329E-02
   1.652214246145804E-02   1.672996542975695E-02   1.694040248919164E-02
   1.715348652098078E-02   1.736925081993785E-02   1.758772909967356E-02
   1.780895549786362E-02   1.803296458158281E-02   1.825979135270623E-02
   1.848947125337833E-02   1.872204017155090E-02   1.895753444659057E-02
   1.919599087495692E-02   1.943744671595203E-02   1.968193969754228E-02
   1.992950802225351E-02   2.018019037314011E-02   2.043402591982943E-02
   2.069105432464208E-02   2.095131574878921E-02   2.121485085864789E-02
   2.148170083211518E-02   2.175190736504235E-02   2.202551267774991E-02
   2.230255952162459E-02   2.258309118579947E-02   2.286715150391777E-02
   2.315478486098215E-02   2.344603620028984E-02   2.374095103045512E-02
   2.403957543252028E-02   2.434195606715567E-02   2.464814018195064E-02
   2.495817561879607E-02   2.527211082135973E-02   2.558999484265575E-02
   2.591187735270918E-02   2.623780864631710E-02   2.656783965090724E-02
   2.690202193449550E-02   2.724040771374364E-02   2.758304986211809E-02
   2.793000191815165E-02   2.828131809380895E-02   2.863705328295718E-02
   2.899726306994342E-02   2.936200373827974E-02   2.973133227943762E-02
   3.010530640175303E-02   3.048398453944341E-02   3.086742586173825E-02
   3.125569028212425E-02   3.164883846770704E-02   3.204693184869046E-02
   3.245003262797520E-02   3.285820379087820E-02   3.327150911497406E-02
   3.369001318006053E-02   3.411378137824927E-02   3.454287992418335E-02
   3.497737586538364E-02   3.541733709272494E-02   3.586283235104409E-02
   3.631393124988160E-02   3.677070427435814E-02   3.723322279618816E-02
   3.770155908483166E-02   3.817578631878659E-02   3.865597859702306E-02
   3.914221095056149E-02   3.963455935419642E-02   4.013310073836759E-02
   4.063791300118055E-02   4.114907502057842E-02   4.166666666666666E-02
   4.219076881419311E-02   4.272146335518456E-02   4.325883321174273E-02
   4.380296234900103E-02   4.435393578824414E-02   4.491183962019299E-02
   4.547676101845633E-02   4.604878825315201E-02   4.662801070469922E-02
   4.721451887778443E-02   4.780840441550302E-02   4.840976011367848E-02
   4.901867993536213E-02   4.963525902551496E-02   5.025959372587419E-02
   5.089178159000709E-02   5.153192139855355E-02   5.218011317466104E-02
   5.283645819961335E-02   5.350105902865589E-02   5.417401950702047E-02
   5.485544478615092E-02   5.554544134013348E-02   5.624411698233350E-02
   5.695158088224151E-02   5.766794358253132E-02   5.839331701633224E-02
   5.912781452471908E-02   5.987155087442189E-02   6.062464227575839E-02
   6.138720640079232E-02   6.215936240171962E-02   6.294123092948639E-02
   6.373293415264082E-02   6.453459577642222E-02   6.534634106209038E-02
   6.616829684649767E-02   6.700059156190766E-02   6.784335525606296E-02
   6.869671961250534E-02   6.956081797115179E-02   7.043578534912882E-02
   7.132175846186939E-02   7.221887574447484E-02   7.312727737334578E-02
   7.404710528808495E-02   7.497850321367538E-02   7.592161668293791E-02
   7.687659305927087E-02   7.784358155967593E-02   7.882273327807375E-02
   7.981420120891236E-02   8.081814027107313E-02   8.183470733207703E-02
   8.286406123259550E-02   8.390636281126988E-02   8.496177492984232E-02
   8.603046249860365E-02   8.711259250216070E-02   8.820833402552812E-02
   8.931785828054832E-02   9.044133863264346E-02   9.157895062790429E-02
   9.273087202051955E-02   9.389728280055036E-02   9.507836522205433E-02
   9.627430383156270E-02   9.748528549691633E-02   9.871149943646423E-02
   9.995313724862909E-02   1.012103929418454E-01   1.024834629648729E-01
   1.037725462374930E-01   1.050778441815896E-01   1.063995607526220E-01
   1.077379024714936E-01   1.090930784568209E-01   1.104653004576087E-01
   1.118547828863363E-01   1.132617428524602E-01   1.146864001963378E-01
   1.161289775235771E-01   1.175897002398208E-01   1.190687965859652E-01
   1.205664976738234E-01   1.220830375222377E-01   1.236186530936445E-01
   1.251735843311013E-01   1.267480741957777E-01   1.283423687049180E-01
   1.299567169702831E-01   1.315913712370737E-01   1.332465869233448E-01
   1.349226226599151E-01   1.366197403307781E-01   1.383382051140230E-01
   1.400782855232679E-01   1.418402534496174E-01   1.436243842041449E-01
   1.454309565609101E-01   1.472602528005197E-01   1.491125587542325E-01
   1.509881638486225E-01   1.528873611508020E-01   1.548104474142127E-01
   1.567577231249964E-01   1.587294925489443E-01   1.607260637790406E-01
   1.627477487836023E-01   1.647948634550241E-01   1.668677276591387E-01
   1.689666652851949E-01   1.710920042964671E-01   1.732440767815004E-01
   1.754232190059983E-01   1.776297714653676E-01   1.798640789379185E-01
   1.821264905387399E-01   1.844173597742474E-01   1.867370445974194E-01
   1.890859074637295E-01   1.914643153877787E-01   1.938726400006445E-01
   1.963112576079477E-01   1.987805492486501E-01   2.012809007545951E-01
   2.038127028107919E-01   2.063763510164630E-01   2.089722459468568E-01
   2.116007932158367E-01   2.142624035392622E-01   2.169574927991604E-01
   2.196864821087121E-01   2.224497978780492E-01   2.252478718808819E-01
   2.280811413219669E-01   2.309500489054177E-01   2.338550429038815E-01
   2.367965772285812E-01   2.397751115002388E-01   2.427911111208950E-01
   2.458450473466257E-01   2.489373973611801E-01   2.520686443505396E-01
   2.552392775784161E-01   2.584497924627030E-01   2.617006906528819E-01
   2.649924801084095E-01   2.683256751780860E-01   2.717007966804214E-01
   2.751183719850181E-01   2.785789350949697E-01   2.820830267303031E-01
   2.856311944124659E-01   2.892239925498765E-01   2.928619825245542E-01
   2.965457327798332E-01   3.002758189091860E-01   3.040528237461599E-01
   3.078773374554438E-01   3.117499576250869E-01   3.156712893598687E-01
   3.196419453758512E-01   3.236625460961157E-01   3.277337197477038E-01
   3.318561024597825E-01   3.360303383630365E-01   3.402570796903186E-01
   3.445369868785614E-01   3.488707286719694E-01   3.532589822265159E-01
   3.577024332157457E-01   3.622017759379167E-01   3.667577134244839E-01
   3.713709575499474E-01   3.760422291430888E-01   3.807722580995970E-01
   3.855617834961204E-01   3.904115537057473E-01   3.953223265149386E-01
   4.002948692419380E-01   4.053299588566620E-01   4.104283821021075E-01
   4.155909356172803E-01   4.208184260616689E-01   4.261116702412921E-01
   4.314714952363206E-01   4.368987385303154E-01   4.423942481410838E-01
   4.479588827531815E-01   4.535935118520895E-01   4.592990158600669E-01
   4.650762862737235E-01   4.709262258033162E-01   4.768497485137967E-01
   4.828477799676418E-01   4.889212573694672E-01   4.950711297124748E-01
   5.012983579267308E-01   5.076039150293113E-01   5.139887862763445E-01
   5.204539693169505E-01   5.270004743491342E-01   5.336293242776268E-01
   5.403415548737139E-01   5.471382149370846E-01   5.540203664596995E-01
   5.609890847917379E-01   5.680454588096152E-01   5.751905910861289E-01
   5.824255980627353E-01   5.897516102239920E-01   5.971697722742062E-01
   6.046812433162886E-01   6.122871970328726E-01   6.199888218697021E-01
   6.277873212213246E-01   6.356839136191325E-01   6.436798329217511E-01
   6.517763285078405E-01   6.599746654713097E-01   6.682761248189865E-01
   6.766820036707858E-01   6.851936154623776E-01   6.938122901504227E-01
   7.025393744203771E-01   7.113762318969109E-01   7.203242433569860E-01
   7.293848069455954E-01   7.385593383942352E-01   7.478492712421106E-01
   7.572560570601278E-01   7.667811656777114E-01   7.764260854124591E-01
   7.861923233027035E-01   7.960814053429862E-01   8.060948767224924E-01
   8.162343020665008E-01   8.265012656808471E-01   8.368973717994862E-01
   8.474242448351511E-01   8.580835296331681E-01   8.688768917284765E-01
   8.798060176058594E-01   8.908726149634726E-01   9.020784129796698E-01
   9.134251625831863E-01   9.249146367267360E-01   9.365486306640260E-01
   9.483289622302804E-01   9.602574721262750E-01   9.723360242059468E-01
   9.845665057676354E-01   9.969508278489646E-01   1.009490925525457E+00
   1.022188758212891E+00   1.035046309973452E+00   1.048065589825766E+00
   1.061248632058796E+00   1.074597496549711E+00   1.088114269085750E+00
   1.101801061690117E+00   1.115660012952006E+00   1.129693288360746E+00
   1.143903080644171E+00   1.158291610111237E+00   1.172861124998944E+00
   1.187613901823638E+00   1.202552245736710E+00   1.217678490884789E+00
   1.232995000774457E+00   1.248504168641543E+00   1.264208417825082E+00
   1.280110202145956E+00   1.296212006290319E+00   1.312516346197832E+00
   1.329025769454771E+00   1.345742855692113E+00   1.362670216988590E+00
   1.379810498278846E+00   1.397166377766707E+00   1.414740567343648E+00
   1.432535813012551E+00   1.450554895316752E+00   1.468800629774522E+00
   1.487275867318996E+00   1.505983494743622E+00   1.524926435153252E+00
   1.544107648420858E+00   1.563530131650042E+00   1.583196919643325E+00
   1.603111085376339E+00   1.623275740478001E+00   1.643694035716690E+00
   1.664369161492581E+00   1.685304348336143E+00   1.706502867412908E+00
   1.727968031034617E+00   1.749703193176750E+00   1.771711750002616E+00
   1.793997140393998E+00   1.816562846488480E+00   1.839412394223554E+00
   1.862549353887536E+00   1.885977340677448E+00   1.909700015263897E+00
   1.933721084363041E+00   1.958044301315806E+00   1.982673466674321E+00
   2.007612428795784E+00   2.032865084443769E+00   2.058435379397091E+00
   2.084327309066367E+00   2.110544919118278E+00   2.137092306107738E+00
   2.163973618117979E+00   2.191193055408685E+00   2.218754871072321E+00
   2.246663371698649E+00   2.274922918047677E+00   2.303537925731020E+00
   2.332512865901840E+00   2.361852265953495E+00   2.391560710226927E+00
   2.421642840726999E+00   2.452103357847811E+00   2.482947021107125E+00
   2.514178649890086E+00   2.545803124202224E+00   2.577825385431995E+00
   2.610250437122871E+00   2.643083345755139E+00   2.676329241537581E+00
   2.709993319209042E+00   2.744080838850154E+00   2.778597126705217E+00
   2.813547576014423E+00   2.848937647856593E+00   2.884772872002443E+00
   2.921058847778661E+00   2.957801244942789E+00   2.995005804569128E+00
   3.032678339945823E+00   3.070824737483160E+00   3.109450957633371E+00
   3.148563035821945E+00   3.188167083390662E+00   3.228269288552541E+00
   3.268875917358715E+00   3.309993314677556E+00   3.351627905186055E+00
   3.393786194373673E+00   3.436474769558880E+00   3.479700300918386E+00
   3.523469542529417E+00   3.567789333425027E+00   3.612666598662704E+00
   3.658108350406455E+00   3.704121689022430E+00   3.750713804188409E+00
   3.797891976017185E+00   3.845663576194079E+00   3.894036069128823E+00
   3.943017013121839E+00   3.992614061545286E+00   4.042834964038893E+00
   4.093687567720836E+00   4.145179818413914E+00   4.197319761887047E+00
   4.250115545112487E+00   4.303575417538785E+00   4.357707732379759E+00
   4.412520947919751E+00   4.468023628835190E+00   4.524224447532900E+00
   4.581132185505150E+00   4.638755734701765E+00   4.697104098919556E+00
   4.756186395209126E+00   4.816011855299486E+00   4.876589827040497E+00
   4.937929775863473E+00   5.000041286260232E+00   5.062934063280624E+00
   5.126617934049023E+00   5.191102849299811E+00   5.256398884932174E+00
   5.322516243584543E+00   5.389465256228707E+00   5.457256383784109E+00
   5.525900218752361E+00   5.595407486872314E+00   5.665789048796047E+00
   5.737055901785780E+00   5.809219181432298E+00   5.882290163394875E+00
   5.956280265163084E+00   6.031201047840881E+00   6.107064217952966E+00
   6.183881629274025E+00   6.261665284680874E+00   6.340427338027901E+00
   6.420180096046205E+00   6.500936020266463E+00   6.582707728966144E+00
   6.665507999141112E+00   6.749349768502015E+00   6.834246137495916E+00
   6.920210371353171E+00   7.007255902160227E+00   7.095396330958381E+00
   7.184645429868930E+00   7.275017144245186E+00   7.366525594851352E+00
   7.459185080069028E+00   7.553010078131307E+00   7.648015249385000E+00
   7.744215438581430E+00   7.841625677195854E+00   7.940261185776250E+00
   8.040137376321525E+00   8.141269854689623E+00   8.243674423036072E+00
   8.347367082282993E+00   8.452364034619370E+00   8.558681686032640E+00
   8.666336648872109E+00   8.775345744444781E+00   8.885726005643585E+00
   8.997494679608922E+00   9.110669230423508E+00   9.225267341841132E+00
   9.341306920049886E+00   9.458806096469921E+00   9.577783230586618E+00
   9.698256912819263E+00   9.820245967425775E+00   9.943769455444160E+00
   1.006884667767070E+01   1.019549717767585E+01   1.032374074485793E+01
   1.045359741753519E+01   1.058508748607697E+01   1.071823149607396E+01
   1.085305025154862E+01   1.098956481820580E+01   1.112779652672426E+01
   1.126776697608971E+01   1.140949803696961E+01   1.155301185513058E+01
   1.169833085489873E+01   1.184547774266337E+01   1.199447551042514E+01
   1.214534743938834E+01   1.229811710359885E+01   1.245280837362752E+01
   1.260944542029999E+01   1.276805271847353E+01   1.292865505086110E+01
   1.309127751190393E+01   1.325594551169242E+01   1.342268477993652E+01
   1.359152136998618E+01   1.376248166290204E+01   1.393559237157771E+01
   1.411088054491365E+01   1.428837357204352E+01   1.446809918661396E+01
   1.465008547111787E+01   1.483436086128246E+01   1.502095415051240E+01
   1.520989449438870E+01   1.540121141522455E+01   1.559493480667801E+01
   1.579109493842315E+01   1.598972246087968E+01   1.619084841000203E+01
   1.639450421212902E+01   1.660072168889400E+01   1.680953306219730E+01
   1.702097095924086E+01   1.723506841762620E+01   1.745185889051685E+01
   1.767137625186519E+01   1.789365480170558E+01   1.811872927151369E+01
   1.834663482963329E+01   1.857740708677157E+01   1.881108210156315E+01
   1.904769638620454E+01   1.928728691215915E+01   1.952989111593404E+01
   1.977554690492970E+01   2.002429266336289E+01   2.027616725826447E+01
   2.053121004555237E+01   2.078946087618092E+01   2.105096010236790E+01
   2.131574858389934E+01   2.158386769451425E+01   2.185535932836919E+01
   2.213026590658421E+01   2.240863038387156E+01   2.269049625524706E+01
   2.297590756282662E+01   2.326490890270775E+01   2.355754543193772E+01
   2.385386287556966E+01   2.415390753380693E+01   2.445772628923787E+01
   2.476536661416118E+01   2.507687657800343E+01   2.539230485483034E+01
   2.571170073095182E+01   2.603511411262337E+01   2.636259553384392E+01
   2.669419616425170E+01   2.702996781711996E+01   2.736996295745249E+01
   2.771423471018174E+01   2.806283686846956E+01   2.841582390211231E+01
   2.877325096605226E+01   2.913517390899524E+01   2.950164928213747E+01
   2.987273434800166E+01   3.024848708938422E+01   3.062896621841558E+01
   3.101423118573362E+01   3.140434218977339E+01   3.179936018617299E+01
   3.219934689729791E+01   3.260436482188569E+01   3.301447724481092E+01
   3.342974824697412E+01   3.385024271531433E+01   3.427602635294760E+01
   3.470716568943370E+01   3.514372809117098E+01   3.558578177192298E+01
   3.603339580347674E+01   3.648664012643525E+01   3.694558556114622E+01
   3.741030381876743E+01   3.788086751247218E+01   3.835735016879504E+01
   3.883982623912035E+01   3.932837111131582E+01   3.982306112151156E+01
   4.032397356602819E+01   4.083118671345434E+01   4.134477981687609E+01