<UPF version="2.0.1">
  <PP_INFO>
    Generated using "atomic" code by A. Dal Corso  v.7.2
    Author: ADC
    Generation date: 20Sep2023
    Pseudopotential type: USPP
    Element: Hf
    Functional: PBE
    Suggested minimum cutoff for wavefunctions:  47. Ry
    Suggested minimum cutoff for charge density: 265. Ry
    The Pseudo was generated with a Fully-Relativistic Calculation
    Local Potential by smoothing AE potential with Bessel fncs, cutoff radius:   1.7000
    Pseudopotential contains additional information for spin-orbit calculations.
    Valence configuration: 
    nl pn  l   occ       Rcut    Rcut US       E pseu
    5S  1  0  2.00      1.000      1.300    -4.893948
    6S  2  0  2.00      1.000      1.300    -0.369959
    5P  2  1  2.00      1.100      1.300    -3.004910
    5P  2  1  4.00      1.100      1.300    -2.435016
    5D  3  2  2.00      1.500      1.600    -0.207173
    5D  3  2  0.00      1.500      1.600    -0.174900
    Generation configuration:
    5S  1  0  2.00      1.000      1.300    -4.893950
    6S  2  0  2.00      1.000      1.300    -0.369964
    5P  2  1  2.00      1.100      1.300    -3.004909
    5P  2  1  4.00      1.100      1.300    -2.435006
    6P  3  1  0.00      1.100      1.300    -2.200000
    6P  3  1  0.00      1.100      1.300    -2.200000
    5D  3  2  2.00      1.500      1.600    -0.207189
    5D  3  2  0.00      1.500      1.600    -0.174896
    5D  3  2  0.00      1.500      1.600     0.050000
    5D  3  2  0.00      1.500      1.600     0.050000
    Pseudization used: troullier-martins
    <PP_INPUTFILE>
@input
title='Hf',
zed=72.,
rel=2,
config='[Xe] 4f14 6s2 6p0 5d2',
iswitch=3,
dft='PBE'
/
@inputp
lpaw=.false.,
pseudotype=3,
file_pseudopw='Hf.rel-pbe-spn-rrkjus_psl.1.0.0.UPF',
author='ADC',
lloc=-1,
rcloc=1.7,
which_augfun='PSQ',
rmatch_augfun_nc=.true.,
nlcc=.true.,
new_core_ps=.true.,
rcore=1.2,
tm=.true.
/
6
5S  1  0  2.00  0.00  1.00  1.30  0.0
6S  2  0  2.00  0.00  1.00  1.30  0.0
5P  2  1  6.00  0.00  1.10  1.30  0.0
6P  3  1  0.00 -2.20  1.10  1.30  0.0
5D  3  2  2.00  0.00  1.50  1.60  0.0
5D  3  2  0.00  0.05  1.50  1.60  0.0
    </PP_INPUTFILE>
  </PP_INFO>
    <!-- END OF HUMAN READABLE SECTION -->
  <PP_HEADER generated="Generated using 'atomic' code by A. Dal Corso  v.7.2" author="ADC" date="20Sep2023" comment="" element="Hf" pseudo_type="USPP" relativistic="full" is_ultrasoft="true" is_paw="false" is_coulomb="false" has_so="true" has_wfc="false" has_gipaw="false" paw_as_gipaw="false" core_correction="true" functional="PBE" z_valence="12.000000000000000" total_psenergy="-124.65931374359653" wfc_cutoff="47.159204687955651" rho_cutoff="265.02738631070395" l_max="2" l_max_rho="4" l_local="-1" mesh_size="1271" number_of_wfc="6" number_of_proj="10"/>
  <PP_MESH mesh="1271" dx="1.2500000000000001E-002" xmin="-7.0000000000000000" rmax="100.00000000000000" zmesh="72.000000000000000">
    <PP_R>
   1.266502729936828E-05   1.282433373151420E-05   1.298564399189697E-05
   1.314898328557297E-05   1.331437713463916E-05   1.348185138222096E-05
   1.365143219651026E-05   1.382314607485432E-05   1.399701984789598E-05
   1.417308068376604E-05   1.435135609232829E-05   1.453187392947804E-05
   1.471466240149459E-05   1.489975006944857E-05   1.508716585366469E-05
   1.527693903824053E-05   1.546909927562227E-05   1.566367659123795E-05
   1.586070138818899E-05   1.606020445200080E-05   1.626221695543298E-05
   1.646677046335018E-05   1.667389693765418E-05   1.688362874227798E-05
   1.709599864824279E-05   1.731103983877847E-05   1.752878591450853E-05
   1.774927089870034E-05   1.797252924258122E-05   1.819859583072167E-05
   1.842750598648599E-05   1.865929547755176E-05   1.889400052149853E-05
   1.913165779146690E-05   1.937230442188887E-05   1.961597801429002E-05
   1.986271664316492E-05   2.011255886192633E-05   2.036554370892921E-05
   2.062171071357065E-05   2.088109990246628E-05   2.114375180570461E-05
   2.140970746317986E-05   2.167900843100461E-05   2.195169678800302E-05
   2.222781514228562E-05   2.250740663790704E-05   2.279051496160731E-05
   2.307718434963797E-05   2.336745959467418E-05   2.366138605281353E-05
   2.395900965066309E-05   2.426037689251555E-05   2.456553486761556E-05
   2.487453125751764E-05   2.518741434353632E-05   2.550423301429038E-05
   2.582503677334168E-05   2.614987574693024E-05   2.647880069180662E-05
   2.681186300316263E-05   2.714911472266204E-05   2.749060854657218E-05
   2.783639783399777E-05   2.818653661521853E-05   2.854107960013137E-05
   2.890008218679902E-05   2.926360047010603E-05   2.963169125052372E-05
   3.000441204298548E-05   3.038182108587340E-05   3.076397735011829E-05
   3.115094054841394E-05   3.154277114454732E-05   3.193953036284633E-05
   3.234128019774602E-05   3.274808342347546E-05   3.316000360386630E-05
   3.357710510228477E-05   3.399945309168865E-05   3.442711356481054E-05
   3.486015334446942E-05   3.529864009401192E-05   3.574264232788472E-05
   3.619222942234025E-05   3.664747162627669E-05   3.710844007221459E-05
   3.757520678741148E-05   3.804784470511623E-05   3.852642767596512E-05
   3.901103047952101E-05   3.950172883595788E-05   3.999859941789227E-05
   4.050171986236344E-05   4.101116878296454E-05   4.152702578212583E-05
   4.204937146355299E-05   4.257828744482143E-05   4.311385637012929E-05
   4.365616192321084E-05   4.420528884041204E-05   4.476132292393092E-05
   4.532435105522428E-05   4.589446120858308E-05   4.647174246487878E-05
   4.705628502548210E-05   4.764818022635743E-05   4.824752055233408E-05
   4.885439965155734E-05   4.946891235012125E-05   5.009115466688515E-05
   5.072122382847699E-05   5.135921828448517E-05   5.200523772284139E-05
   5.265938308539733E-05   5.332175658369671E-05   5.399246171494625E-05
   5.467160327818726E-05   5.535928739067070E-05   5.605562150443831E-05
   5.676071442311204E-05   5.747467631889496E-05   5.819761874978582E-05
   5.892965467701028E-05   5.967089848267138E-05   6.042146598762179E-05
   6.118147446956120E-05   6.195104268136113E-05   6.273029086962036E-05
   6.351934079345379E-05   6.431831574351730E-05   6.512734056127238E-05
   6.594654165849274E-05   6.677604703701647E-05   6.761598630874671E-05
   6.846649071590350E-05   6.932769315153080E-05   7.019972818026131E-05
   7.108273205934238E-05   7.197684275992674E-05   7.288219998863034E-05
   7.379894520936216E-05   7.472722166542806E-05   7.566717440191285E-05
   7.661895028834404E-05   7.758269804164027E-05   7.855856824934873E-05
   7.954671339317479E-05   8.054728787280751E-05   8.156044803004516E-05
   8.258635217322352E-05   8.362516060195220E-05   8.467703563216164E-05
   8.574214162146529E-05   8.682064499484113E-05   8.791271427063538E-05
   8.901852008689421E-05   9.013823522802621E-05   9.127203465180018E-05
   9.242009551668297E-05   9.358259720952038E-05   9.475972137356705E-05
   9.595165193686851E-05   9.715857514100015E-05   9.838067957016841E-05
   9.961815618067638E-05   1.008711983307624E-04   1.021400018108116E-04
   1.034247648739491E-04   1.047256882670177E-04   1.060429752619439E-04
   1.073768316875010E-04   1.087274659614691E-04   1.100950891232013E-04
   1.114799148665995E-04   1.128821595735029E-04   1.143020423475004E-04
   1.157397850481640E-04   1.171956123257157E-04   1.186697516561298E-04
   1.201624333766755E-04   1.216738907219087E-04   1.232043598601147E-04
   1.247540799302099E-04   1.263232930791087E-04   1.279122444995575E-04
   1.295211824684490E-04   1.311503583856141E-04   1.328000268131042E-04
   1.344704455149679E-04   1.361618754975254E-04   1.378745810501529E-04
   1.396088297865776E-04   1.413648926866926E-04   1.431430441388993E-04
   1.449435619829792E-04   1.467667275535091E-04   1.486128257238184E-04
   1.504821449505021E-04   1.523749773184929E-04   1.542916185866987E-04
   1.562323682342176E-04   1.581975295071302E-04   1.601874094658836E-04
   1.622023190332702E-04   1.642425730430086E-04   1.663084902889392E-04
   1.684003935748347E-04   1.705186097648394E-04   1.726634698345429E-04
   1.748353089226944E-04   1.770344663835704E-04   1.792612858399982E-04
   1.815161152370483E-04   1.837993068964020E-04   1.861112175714004E-04
   1.884522085027907E-04   1.908226454751686E-04   1.932228988741336E-04
   1.956533437441630E-04   1.981143598472119E-04   2.006063317220539E-04
   2.031296487443642E-04   2.056847051875611E-04   2.082719002844127E-04
   2.108916382894159E-04   2.135443285419643E-04   2.162303855303068E-04
   2.189502289563123E-04   2.217042838010503E-04   2.244929803911927E-04
   2.273167544662559E-04   2.301760472466841E-04   2.330713055027911E-04
   2.360029816245706E-04   2.389715336923803E-04   2.419774255485210E-04
   2.450211268697106E-04   2.481031132404727E-04   2.512238662274488E-04
   2.543838734546414E-04   2.575836286796095E-04   2.608236318706168E-04
   2.641043892847536E-04   2.674264135470407E-04   2.707902237305277E-04
   2.741963454373998E-04   2.776453108811032E-04   2.811376589695054E-04
   2.846739353891008E-04   2.882546926902742E-04   2.918804903736393E-04
   2.955518949774608E-04   2.992694801661774E-04   3.030338268200385E-04
   3.068455231258673E-04   3.107051646689667E-04   3.146133545261802E-04
   3.185707033601241E-04   3.225778295146052E-04   3.266353591112376E-04
   3.307439261472761E-04   3.349041725946788E-04   3.391167485004172E-04
   3.433823120880472E-04   3.477015298605576E-04   3.520750767045131E-04
   3.565036359955060E-04   3.609878997049354E-04   3.655285685081294E-04
   3.701263518938262E-04   3.747819682750345E-04   3.794961451012857E-04
   3.842696189722997E-04   3.891031357530809E-04   3.939974506904597E-04
   3.989533285311032E-04   4.039715436410066E-04   4.090528801264902E-04
   4.141981319567182E-04   4.194081030877569E-04   4.246836075881958E-04
   4.300254697663457E-04   4.354345242990401E-04   4.409116163620549E-04
   4.464576017621676E-04   4.520733470708810E-04   4.577597297598245E-04
   4.635176383378622E-04   4.693479724899244E-04   4.752516432175838E-04
   4.812295729814031E-04   4.872826958450700E-04   4.934119576213467E-04
   4.996183160198565E-04   5.059027407967255E-04   5.122662139061113E-04
   5.187097296536336E-04   5.252342948517373E-04   5.318409289770091E-04
   5.385306643294724E-04   5.453045461938864E-04   5.521636330030738E-04
   5.591089965033035E-04   5.661417219217531E-04   5.732629081360770E-04
   5.804736678461100E-04   5.877751277477266E-04   5.951684287088915E-04
   6.026547259479219E-04   6.102351892139919E-04   6.179110029699100E-04
   6.256833665771919E-04   6.335534944834640E-04   6.415226164122239E-04
   6.495919775549859E-04   6.577628387658463E-04   6.660364767584927E-04
   6.744141843056941E-04   6.828972704412998E-04   6.914870606647770E-04
   7.001848971483247E-04   7.089921389465891E-04   7.179101622090196E-04
   7.269403603948942E-04   7.360841444910528E-04   7.453429432323630E-04
   7.547182033249652E-04   7.642113896723230E-04   7.738239856041166E-04
   7.835574931080188E-04   7.934134330643790E-04   8.033933454838679E-04
   8.134987897481050E-04   8.237313448533156E-04   8.340926096570548E-04
   8.445842031280274E-04   8.552077645990588E-04   8.659649540232424E-04
   8.768574522333108E-04   8.878869612042718E-04   8.990552043193410E-04
   9.103639266392272E-04   9.218148951748006E-04   9.334098991631910E-04
   9.451507503473638E-04   9.570392832592026E-04   9.690773555061620E-04
   9.812668480615227E-04   9.936096655582946E-04   1.006107736586826E-03
   1.018763013996141E-03   1.031577475199082E-03   1.044553122481284E-03
   1.057691983314032E-03   1.070996110671065E-03   1.084467583349349E-03
   1.098108506293898E-03   1.111921010926675E-03   1.125907255479628E-03
   1.140069425331928E-03   1.154409733351424E-03   1.168930420240422E-03
   1.183633754885790E-03   1.198522034713479E-03   1.213597586047505E-03
   1.228862764473435E-03   1.244319955206454E-03   1.259971573464063E-03
   1.275820064843457E-03   1.291867905703660E-03   1.308117603552454E-03
   1.324571697438190E-03   1.341232758346512E-03   1.358103389602084E-03
   1.375186227275365E-03   1.392483940594497E-03   1.409999232362376E-03
   1.427734839378978E-03   1.445693532868981E-03   1.463878118914782E-03
   1.482291438894947E-03   1.500936369928185E-03   1.519815825322903E-03
   1.538932755032416E-03   1.558290146115885E-03   1.577891023205052E-03
   1.597738448976839E-03   1.617835524631903E-03   1.638185390379202E-03
   1.658791225926661E-03   1.679656250978010E-03   1.700783725735860E-03
   1.722176951411129E-03   1.743839270738852E-03   1.765774068500494E-03
   1.787984772052837E-03   1.810474851863496E-03   1.833247822053198E-03
   1.856307240944868E-03   1.879656711619621E-03   1.903299882479757E-03
   1.927240447818823E-03   1.951482148398864E-03   1.976028772034912E-03
   2.000884154186851E-03   2.026052178558714E-03   2.051536777705512E-03
   2.077341933647710E-03   2.103471678493426E-03   2.129930095068451E-03
   2.156721317554209E-03   2.183849532133718E-03   2.211318977645699E-03
   2.239133946246901E-03   2.267298784082756E-03   2.295817891966480E-03
   2.324695726066702E-03   2.353936798603753E-03   2.383545678554706E-03
   2.413526992367293E-03   2.443885424682799E-03   2.474625719068035E-03
   2.505752678756540E-03   2.537271167399094E-03   2.569186109823670E-03
   2.601502492804959E-03   2.634225365843546E-03   2.667359841954920E-03
   2.700911098468384E-03   2.734884377836028E-03   2.769284988451878E-03
   2.804118305481326E-03   2.839389771701029E-03   2.875104898349344E-03
   2.911269265987470E-03   2.947888525371432E-03   2.984968398335009E-03
   3.022514678683792E-03   3.060533233100472E-03   3.099030002061525E-03
   3.138011000765429E-03   3.177482320072535E-03   3.217450127456790E-03
   3.257920667969414E-03   3.298900265214696E-03   3.340395322338086E-03
   3.382412323026678E-03   3.424957832522314E-03   3.468038498647413E-03
   3.511661052843701E-03   3.555832311224029E-03   3.600559175637384E-03
   3.645848634747325E-03   3.691707765123983E-03   3.738143732349776E-03
   3.785163792139065E-03   3.832775291471850E-03   3.880985669741770E-03
   3.929802459918514E-03   3.979233289724863E-03   4.029285882828547E-03
   4.079968060049069E-03   4.131287740579732E-03   4.183252943225032E-03
   4.235871787653601E-03   4.289152495666943E-03   4.343103392484082E-03
   4.397732908042408E-03   4.453049578314873E-03   4.509062046643746E-03
   4.565779065091169E-03   4.623209495806662E-03   4.681362312411868E-03
   4.740246601402693E-03   4.799871563569091E-03   4.860246515432714E-03
   4.921380890702622E-03   4.983284241749330E-03   5.045966241097381E-03
   5.109436682936699E-03   5.173705484652959E-03   5.238782688377182E-03
   5.304678462554849E-03   5.371403103534744E-03   5.438967037177764E-03
   5.507380820486013E-03   5.576655143252316E-03   5.646800829730546E-03
   5.717828840326927E-03   5.789750273312616E-03   5.862576366557855E-03
   5.936318499287873E-03   6.010988193860938E-03   6.086597117568744E-03
   6.163157084459443E-03   6.240680057183635E-03   6.319178148863524E-03
   6.398663624985640E-03   6.479148905317342E-03   6.560646565847426E-03
   6.643169340751169E-03   6.726730124380037E-03   6.811341973276477E-03
   6.897018108214026E-03   6.983771916263069E-03   7.071616952882629E-03
   7.160566944038393E-03   7.250635788347450E-03   7.341837559249968E-03
   7.434186507208198E-03   7.527697061933156E-03   7.622383834639259E-03
   7.718261620327385E-03   7.815345400096613E-03   7.913650343485042E-03
   8.013191810840094E-03   8.113985355718556E-03   8.216046727316881E-03
   8.319391872932024E-03   8.424036940453242E-03   8.529998280885250E-03
   8.637292450903061E-03   8.745936215439032E-03   8.855946550302413E-03
   8.967340644831834E-03   9.080135904581213E-03   9.194349954039364E-03
   9.310000639383885E-03   9.427106031269651E-03   9.545684427652391E-03
   9.665754356647807E-03   9.787334579426578E-03   9.910444093145874E-03
   1.003510213391768E-02   1.016132817981447E-02   1.028914195391275E-02
   1.041856342737475E-02   1.054961282256901E-02   1.068231061623015E-02
   1.081667754265840E-02   1.095273459695940E-02   1.109050303832469E-02
   1.123000439335351E-02   1.137126045941642E-02   1.151429330806112E-02
   1.165912528846121E-02   1.180577903090831E-02   1.195427745034803E-02
   1.210464374996053E-02   1.225690142478605E-02   1.241107426539605E-02
   1.256718636161055E-02   1.272526210626220E-02   1.288532619900769E-02
   1.304740365018716E-02   1.321151978473214E-02   1.337770024612253E-02
   1.354597100039352E-02   1.371635834019281E-02   1.388888888888889E-02
   1.406358960473104E-02   1.424048778506152E-02   1.441961107058091E-02
   1.460098744966701E-02   1.478464526274805E-02   1.497061320673100E-02
   1.515892033948544E-02   1.534959608438400E-02   1.554267023489974E-02
   1.573817295926148E-02   1.593613480516767E-02   1.613658670455949E-02
   1.633955997845404E-02   1.654508634183832E-02   1.675319790862473E-02
   1.696392719666903E-02   1.717730713285118E-02   1.739337105822035E-02
   1.761215273320445E-02   1.783368634288530E-02   1.805800650234016E-02
   1.828514826205031E-02   1.851514711337783E-02   1.874803899411117E-02
   1.898386029408050E-02   1.922264786084377E-02   1.946443900544408E-02
   1.970927150823969E-02   1.995718362480730E-02   2.020821409191946E-02
   2.046240213359744E-02   2.071978746723987E-02   2.098041030982880E-02
   2.124431138421361E-02   2.151153192547407E-02   2.178211368736346E-02
   2.205609894883255E-02   2.233353052063589E-02   2.261445175202099E-02
   2.289890653750178E-02   2.318693932371726E-02   2.347859511637627E-02
   2.377391948728980E-02   2.407295858149162E-02   2.437575912444859E-02
   2.468236842936165E-02   2.499283440455846E-02   2.530720556097930E-02
   2.562553101975696E-02   2.594786051989198E-02   2.627424442602459E-02
   2.660473373630412E-02   2.693938009035771E-02   2.727823577735901E-02
   2.762135374419850E-02   2.796878760375663E-02   2.832059164328077E-02
   2.867682083286788E-02   2.903753083405357E-02   2.940277800850937E-02
   2.977261942684944E-02   3.014711287754782E-02   3.052631687596810E-02
   3.091029067350652E-02   3.129909426685012E-02   3.169278840735144E-02
   3.209143461052090E-02   3.249509516563878E-02   3.290383314548808E-02
   3.331771241620970E-02   3.373679764728179E-02   3.416115432162432E-02
   3.459084874583100E-02   3.502594806052986E-02   3.546652025087398E-02
   3.591263415716454E-02   3.636435948560697E-02   3.682176681920288E-02
   3.728492762877878E-02   3.775391428415340E-02   3.822880006544593E-02
   3.870965917452571E-02   3.919656674660694E-02   3.968959886198841E-02
   4.018883255794112E-02   4.069434584074590E-02   4.120621769788151E-02
   4.172452811036712E-02   4.224935806525924E-02   4.278078956830599E-02
   4.331890565676105E-02   4.386379041235790E-02   4.441552897444825E-02
   4.497420755330504E-02   4.553991344359268E-02   4.611273503800765E-02
   4.669276184108931E-02   4.728008448320580E-02   4.787479473471496E-02
   4.847698552030336E-02   4.908675093350658E-02   4.970418625141084E-02
   5.032938794954084E-02   5.096245371693398E-02   5.160348247140422E-02
   5.225257437499881E-02   5.290983084964809E-02   5.357535459301352E-02
   5.424924959453409E-02   5.493162115167469E-02   5.562257588637957E-02
   5.632222176173161E-02   5.703066809882237E-02   5.774802559383348E-02
   5.847440633533278E-02   5.920992382178920E-02   5.995469297930617E-02
   6.070883017957995E-02   6.147245325808247E-02   6.224568153247312E-02
   6.302863582124316E-02   6.382143846259292E-02   6.462421333354817E-02
   6.543708586931590E-02   6.626018308288337E-02   6.709363358486505E-02
   6.793756760359732E-02   6.879211700548768E-02   6.965741531561892E-02
   7.053359773861224E-02   7.142080117975405E-02   7.231916426638681E-02
   7.322882736957069E-02   7.414993262601638E-02   7.508262396029398E-02
   7.602704710732229E-02   7.698334963513923E-02   7.795168096796048E-02
   7.893219240952705E-02   7.992503716674626E-02   8.093037037363165E-02
   8.194834911554191E-02   8.297913245372669E-02   8.402288145017986E-02
   8.507975919280536E-02   8.614993082090100E-02   8.723356355096064E-02
   8.833082670280318E-02   8.944189172602866E-02   9.056693222680712E-02
   9.170612399500604E-02   9.285964503165656E-02   9.402767557676768E-02
   9.521039813748865E-02   9.640799751662549E-02   9.762066084151806E-02
   9.884857759327774E-02   1.000919396363953E-01   1.013509412487200E-01
   1.026257791518146E-01   1.039166525416956E-01   1.052237631199562E-01
   1.065473151252837E-01   1.078875153653719E-01   1.092445732492346E-01
   1.106187008199275E-01   1.120101127876788E-01   1.134190265634395E-01
   1.148456622928538E-01   1.162902428906565E-01   1.177529940755053E-01
   1.192341444052486E-01   1.207339253126389E-01   1.222525711414946E-01
   1.237903191833158E-01   1.253474097143629E-01   1.269240860331990E-01
   1.285205944987068E-01   1.301371845685824E-01   1.317741088383129E-01
   1.334316230806460E-01   1.351099862855540E-01   1.368094607007025E-01
   1.385303118724268E-01   1.402728086872230E-01   1.420372234137640E-01
   1.438238317454402E-01   1.456329128434385E-01   1.474647493803612E-01
   1.493196275843938E-01   1.511978372840298E-01   1.530996719533556E-01
   1.550254287579078E-01   1.569754086011054E-01   1.589499161712656E-01
   1.609492599892139E-01   1.629737524564891E-01   1.650237099041583E-01
   1.670994526422436E-01   1.692013050097705E-01   1.713295954254482E-01
   1.734846564389835E-01   1.756668247830447E-01   1.778764414258756E-01
   1.801138516245713E-01   1.823794049790282E-01   1.846734554865665E-01
   1.869963615972460E-01   1.893484862698717E-01   1.917301970287096E-01
   1.941418660209118E-01   1.965838700746640E-01   1.990565907580687E-01
   2.015604144387629E-01   2.040957323442908E-01   2.066629406232340E-01
   2.092624404071082E-01   2.118946378730442E-01   2.145599443072504E-01
   2.172587761692802E-01   2.199915551571032E-01   2.227587082729955E-01
   2.255606678902619E-01   2.283978718207925E-01   2.312707633834742E-01
   2.341797914734590E-01   2.371254106323036E-01   2.401080811189953E-01
   2.431282689818651E-01   2.461864461314117E-01   2.492830904140369E-01
   2.524186856867093E-01   2.555937218925705E-01   2.588086951374863E-01
   2.620641077675678E-01   2.653604684476620E-01   2.686982922408308E-01
   2.720781006888336E-01   2.755004218936157E-01   2.789657905998287E-01
   2.824747482783837E-01   2.860278432110561E-01   2.896256305761588E-01
   2.932686725352865E-01   2.969575383211576E-01   3.006928043265566E-01
   3.044750541943955E-01   3.083048789089120E-01   3.121828768880087E-01
   3.161096540767601E-01   3.200858240420917E-01   3.241120080686489E-01
   3.281888352558784E-01   3.323169426163216E-01   3.364969751751525E-01
   3.407295860709635E-01   3.450154366578173E-01   3.493551966085888E-01
   3.537495440195986E-01   3.581991655165703E-01   3.627047563619166E-01
   3.672670205633722E-01   3.718866709840022E-01   3.765644294535820E-01
   3.813010268813903E-01   3.860972033704124E-01   3.909537083329813E-01
   3.958713006078794E-01   4.008507485789032E-01   4.058928302949297E-01
   4.109983335914859E-01   4.161680562138476E-01   4.214028059416939E-01
   4.267034007153185E-01   4.320706687634397E-01   4.375054487326107E-01
   4.430085898182570E-01   4.485809518973711E-01   4.542234056628635E-01
   4.599368327596154E-01   4.657221259222356E-01   4.715801891145494E-01
   4.775119376708504E-01   4.835182984389174E-01   4.896002099248408E-01
   4.957586224396654E-01   5.019944982478741E-01   5.083088117177506E-01
   5.147025494736194E-01   5.211767105500139E-01   5.277323065477750E-01
   5.343703617921131E-01   5.410919134926669E-01   5.478980119055632E-01
   5.547897204975268E-01   5.617681161120477E-01   5.688342891376361E-01
   5.759893436782058E-01   5.832343977255835E-01   5.905705833342053E-01
   5.979990467979994E-01   6.055209488294931E-01   6.131374647411846E-01
   6.208497846291786E-01   6.286591135591495E-01   6.365666717546321E-01
   6.445736947876802E-01   6.526814337719354E-01   6.608911555581070E-01
   6.692041429319280E-01   6.776216948145897E-01   6.861451264656970E-01
   6.947757696887891E-01   7.035149730394259E-01   7.123641020359126E-01
   7.213245393726596E-01   7.303976851362285E-01   7.395849570241069E-01
   7.488877905662162E-01   7.583076393492255E-01   7.678459752436734E-01
   7.775042886339466E-01   7.872840886511648E-01   7.971869034089756E-01
   8.072142802423331E-01   8.173677859492703E-01   8.276490070357082E-01
   8.380595499633618E-01   8.486010414007413E-01   8.592751284773317E-01
   8.700834790409572E-01   8.810277819183798E-01   8.921097471791938E-01
   9.033311064030141E-01   9.146936129500514E-01   9.261990422350723E-01
   9.378491920048077E-01   9.496458826188642E-01   9.615909573341478E-01
   9.736862825928869E-01   9.859337483142629E-01   9.983352681897093E-01
   1.010892779981941E+00   1.023608245827720E+00   1.036483652544457E+00
   1.049521011940648E+00   1.062722361130221E+00   1.076089762850847E+00
   1.089625305786238E+00   1.103331104892519E+00   1.117209301728685E+00
   1.131262064791224E+00   1.145491589852960E+00   1.159900100306129E+00
   1.174489847509806E+00   1.189263111141676E+00   1.204222199554235E+00
   1.219369450135485E+00   1.234707229674143E+00   1.250237934729470E+00
   1.265963992005728E+00   1.281887858731360E+00   1.298012023042941E+00
   1.314339004373946E+00   1.330871353848429E+00   1.347611654679631E+00
   1.364562522573612E+00   1.381726606137971E+00   1.399106587295682E+00
   1.416705181704162E+00   1.434525139179595E+00   1.452569244126587E+00
   1.470840315973250E+00   1.489341209611730E+00   1.508074815844300E+00
   1.527044061835050E+00   1.546251911567255E+00   1.565701366306518E+00
   1.585395465069709E+00   1.605337285099829E+00   1.625529942346832E+00
   1.645976591954491E+00   1.666680428753410E+00   1.687644687760208E+00
   1.708872644683008E+00   1.730367616433270E+00   1.752132961644058E+00
   1.774172081194848E+00   1.796488418742902E+00   1.819085461261369E+00
   1.841966739584120E+00   1.865135828957438E+00   1.888596349598682E+00
   1.912351967261927E+00   1.936406393810766E+00   1.960763387798292E+00
   1.985426755054361E+00   2.010400349280294E+00   2.035688072650989E+00
   2.061293876424675E+00   2.087221761560292E+00   2.113475779342634E+00
   2.140060032015402E+00   2.166978673422154E+00   2.194235909655381E+00
   2.221835999713704E+00   2.249783256167338E+00   2.278082045831972E+00
   2.306736790451057E+00   2.335751967386742E+00   2.365132110319460E+00
   2.394881809956310E+00   2.425005714748395E+00   2.455508531617117E+00
   2.486395026689676E+00   2.517670026043769E+00   2.549338416461667E+00
   2.581405146193810E+00   2.613875225731951E+00   2.646753728592083E+00
   2.680045792107175E+00   2.713756618229874E+00   2.747891474345357E+00
   2.782455694094331E+00   2.817454678206457E+00   2.852893895344213E+00
   2.888778882957370E+00   2.925115248148261E+00   2.961908668547862E+00
   2.999164893202974E+00   3.036889743474502E+00   3.075089113947044E+00
   3.113768973349962E+00   3.152935365489974E+00   3.192594410195539E+00
   3.232752304273087E+00   3.273415322475258E+00   3.314589818481387E+00
   3.356282225890233E+00   3.398499059225283E+00   3.441246914952643E+00
   3.484532472511730E+00   3.528362495358990E+00   3.572743832024652E+00
   3.617683417182872E+00   3.663188272735267E+00   3.709265508908085E+00
   3.755922325363236E+00   3.803166012323202E+00   3.851003951710194E+00
   3.899443618299577E+00   3.948492580887791E+00   3.998158503475047E+00
   4.048449146462780E+00   4.099372367866282E+00   4.150936124542508E+00
   4.203148473433331E+00   4.256017572824508E+00   4.309551683620366E+00
   4.363759170634641E+00   4.418648503897473E+00   4.474228259978840E+00
   4.530507123328727E+00   4.587493887634013E+00   4.645197457192570E+00
   4.703626848304549E+00   4.762791190681172E+00   4.822699728871321E+00
   4.883361823705956E+00   4.944786953760821E+00   5.006984716837469E+00
   5.069964831462901E+00   5.133737138408184E+00   5.198311602226003E+00
   5.263698312807715E+00   5.329907486959892E+00   5.396949470000678E+00
   5.464834737376339E+00   5.533573896297999E+00   5.603177687399099E+00
   5.673656986413619E+00   5.745022805875400E+00   5.817286296838948E+00
   5.890458750621730E+00   5.964551600568527E+00   6.039576423837898E+00
   6.115544943211096E+00   6.192469028923855E+00   6.270360700521049E+00
   6.349232128734847E+00   6.429095637386383E+00   6.509963705311347E+00
   6.591848968309901E+00   6.674764221120963E+00   6.758722419421489E+00
   6.843736681850789E+00   6.929820292060306E+00   7.016986700789299E+00
   7.105249527966447E+00   7.194622564838083E+00   7.285119776123062E+00
   7.376755302194738E+00   7.469543461290519E+00   7.563498751749020E+00
   7.658635854275539E+00   7.754969634235916E+00   7.852515143979239E+00
   7.951287625189887E+00   8.051302511268979E+00   8.152575429745957E+00
   8.255122204720392E+00   8.358958859334475E+00   8.464101618276779E+00
   8.570566910317273E+00   8.678371370874457E+00   8.787531844614641E+00
   8.898065388083900E+00   9.009989272373319E+00   9.123320985817497E+00
   9.238078236727247E+00   9.354278956156520E+00   9.471941300704104E+00
   9.591083655350754E+00   9.711724636331747E+00   9.833883094045824E+00
   9.957578116000555E+00   1.008282902979474E+01   1.020965540613853E+01
   1.033807706191121E+01   1.046811406325780E+01   1.059978672872433E+01
   1.073311563243264E+01   1.086812160729523E+01   1.100482574827031E+01
   1.114324941565804E+01   1.128341423843811E+01   1.142534211764920E+01
   1.156905522981123E+01   1.171457603039033E+01   1.186192725730766E+01
   1.201113193449225E+01   1.216221337547842E+01   1.231519518704874E+01
   1.247010127292248E+01   1.262695583749073E+01   1.278578338959835E+01
   1.294660874637345E+01   1.310945703710527E+01   1.327435370717052E+01
   1.344132452200940E+01   1.361039557115145E+01   1.378159327229203E+01