<UPF version="2.0.1">
  <PP_INFO>
    Generated using "atomic" code by A. Dal Corso  v.7.2
    Author: ADC
    Generation date: 20Sep2023
    Pseudopotential type: USPP
    Element: Mn
    Functional: PBE
    Suggested minimum cutoff for wavefunctions:  57. Ry
    Suggested minimum cutoff for charge density: 699. Ry
    The Pseudo was generated with a Fully-Relativistic Calculation
    Local Potential by smoothing AE potential with Bessel fncs, cutoff radius:   1.4000
    Pseudopotential contains additional information for spin-orbit calculations.
    Valence configuration: 
    nl pn  l   occ       Rcut    Rcut US       E pseu
    3S  1  0  2.00      0.650      1.400    -6.307363
    4S  2  0  2.00      0.650      1.400    -0.375051
    3P  2  1  2.00      0.850      1.300    -4.071036
    3P  2  1  4.00      0.850      1.300    -3.977709
    3D  3  2  4.00      1.000      1.550    -0.500466
    3D  3  2  1.00      1.000      1.550    -0.491819
    Generation configuration:
    3S  1  0  2.00      0.650      1.400    -6.307366
    4S  2  0  2.00      0.650      1.400    -0.375055
    3P  2  1  2.00      0.850      1.300    -4.071036
    3P  2  1  4.00      0.850      1.300    -3.977703
    4P  3  1  0.00      0.850      1.300     7.000000
    4P  3  1  0.00      0.850      1.300     7.000000
    3D  3  2  4.00      1.000      1.550    -0.500467
    3D  3  2  1.00      1.000      1.550    -0.491814
    3D  3  2  0.00      1.000      1.550     0.050000
    3D  3  2  0.00      1.000      1.550     0.050000
    Pseudization used: troullier-martins
    <PP_INPUTFILE>
@input
title='Mn',
zed=25.,
rel=2,
config='[Ar] 4s2 4p0 3d5',
iswitch=3,
dft='PBE'
/
@inputp
lpaw=.false.,
pseudotype=3,
file_pseudopw='Mn.rel-pbe-spn-rrkjus_psl.1.0.0.UPF',
author='ADC',
lloc=-1,
rcloc=1.4,
which_augfun='PSQ',
rmatch_augfun_nc=.true.,
nlcc=.true.,
new_core_ps=.true.,
rcore=0.8,
tm=.true.
/
6
3S  1  0  2.00  0.00  0.65  1.40  0.0
4S  2  0  2.00  0.00  0.65  1.40  0.0
3P  2  1  6.00  0.00  0.85  1.30  0.0
4P  3  1  0.00  7.00  0.85  1.30  0.0
3D  3  2  5.00  0.00  1.00  1.55  0.0
3D  3  2  0.00  0.05  1.00  1.55  0.0
    </PP_INPUTFILE>
  </PP_INFO>
    <!-- END OF HUMAN READABLE SECTION -->
  <PP_HEADER generated="Generated using 'atomic' code by A. Dal Corso  v.7.2" author="ADC" date="20Sep2023" comment="" element="Mn" pseudo_type="USPP" relativistic="full" is_ultrasoft="true" is_paw="false" is_coulomb="false" has_so="true" has_wfc="false" has_gipaw="false" paw_as_gipaw="false" core_correction="true" functional="PBE" z_valence="15.000000000000000" total_psenergy="-208.60069367815598" wfc_cutoff="56.640999067674770" rho_cutoff="698.54269804688909" l_max="2" l_max_rho="4" l_local="-1" mesh_size="1187" number_of_wfc="6" number_of_proj="10"/>
  <PP_MESH mesh="1187" dx="1.2500000000000001E-002" xmin="-7.0000000000000000" rmax="100.00000000000000" zmesh="25.000000000000000">
    <PP_R>
   3.647527862218065E-05   3.693408114676089E-05   3.739865469666329E-05
   3.786907186245016E-05   3.834540614776079E-05   3.882773198079636E-05
   3.931612472594955E-05   3.981066069558045E-05   4.031141716194042E-05
   4.081847236924618E-05   4.133190554590548E-05   4.185179691689674E-05
   4.237822771630440E-05   4.291128020001187E-05   4.345103765855432E-05
   4.399758443013273E-05   4.455100591379213E-05   4.511138858276529E-05
   4.567881999798430E-05   4.625338882176231E-05   4.683518483164698E-05
   4.742429893444852E-05   4.802082318044403E-05   4.862485077776059E-05
   4.923647610693924E-05   4.985579473568198E-05   5.048290343378458E-05
   5.111790018825698E-05   5.176088421863392E-05   5.241195599247840E-05
   5.307121724107966E-05   5.373877097534907E-05   5.441472150191575E-05
   5.509917443942469E-05   5.579223673503995E-05   5.649401668115527E-05
   5.720462393231498E-05   5.792416952234782E-05   5.865276588171612E-05
   5.939052685508347E-05   6.013756771910289E-05   6.089400520042926E-05
   6.165995749395801E-05   6.243554428129329E-05   6.322088674944869E-05
   6.401610760978257E-05   6.482133111717226E-05   6.563668308942904E-05
   6.646229092695736E-05   6.729828363266165E-05   6.814479183210296E-05
   6.900194779390969E-05   6.986988545044478E-05   7.074874041873283E-05
   7.163865002165078E-05   7.253975330938460E-05   7.345219108115628E-05
   7.437610590722404E-05   7.531164215115909E-05   7.625894599240306E-05
   7.721816544910837E-05   7.818945040126668E-05   7.917295261412787E-05
   8.016882576191357E-05   8.117722545182936E-05   8.219830924837836E-05
   8.323223669798118E-05   8.427916935390537E-05   8.533927080150832E-05
   8.641270668379818E-05   8.749964472731541E-05   8.860025476834067E-05
   8.971470877943213E-05   9.084318089629627E-05   9.198584744499744E-05
   9.314288696950855E-05   9.431448025960932E-05   9.550081037913494E-05
   9.670206269458014E-05   9.791842490406332E-05   9.915008706665434E-05
   1.003972416320719E-04   1.016600834707543E-04   1.029388099043080E-04
   1.042336207363399E-04   1.055447182836769E-04   1.068723074079780E-04
   1.082165955477451E-04   1.095777927507347E-04   1.109561117067795E-04
   1.123517677810205E-04   1.137649790475587E-04   1.151959663235297E-04
   1.166449532036067E-04   1.181121660949379E-04   1.195978342525224E-04
   1.211021898150326E-04   1.226254678410857E-04   1.241679063459723E-04
   1.257297463388472E-04   1.273112318603867E-04   1.289126100209211E-04
   1.305341310390459E-04   1.321760482807193E-04   1.338386182988509E-04
   1.355221008733885E-04   1.372267590519094E-04   1.389528591907221E-04
   1.407006709964851E-04   1.424704675683492E-04   1.442625254406292E-04
   1.460771246260137E-04   1.479145486593173E-04   1.497750846417832E-04
   1.516590232859443E-04   1.535666589610465E-04   1.554982897390452E-04
   1.574542174411793E-04   1.594347476851316E-04   1.614401899327823E-04
   1.634708575385627E-04   1.655270677984175E-04   1.676091419993832E-04
   1.697174054697896E-04   1.718521876300936E-04   1.740138220443508E-04
   1.762026464723363E-04   1.784190029223201E-04   1.806632377045066E-04
   1.829357014851469E-04   1.852367493413298E-04   1.875667408164644E-04
   1.899260399764591E-04   1.923150154666074E-04   1.947340405691905E-04
   1.971834932618021E-04   1.996637562764087E-04   2.021752171591526E-04
   2.047182683309061E-04   2.072933071485890E-04   2.099007359672554E-04
   2.125409622029630E-04   2.152143983964328E-04   2.179214622775090E-04
   2.206625768304309E-04   2.234381703599240E-04   2.262486765581243E-04
   2.290945345723434E-04   2.319761890736857E-04   2.348940903265301E-04
   2.378486942588838E-04   2.408404625336224E-04   2.438698626206255E-04
   2.469373678698200E-04   2.500434575851424E-04   2.531886170994299E-04
   2.563733378502553E-04   2.595981174567155E-04   2.628634597971845E-04
   2.661698750880470E-04   2.695178799634187E-04   2.729079975558731E-04
   2.763407575781813E-04   2.798166964060804E-04   2.833363571620850E-04
   2.869002898003480E-04   2.905090511925957E-04   2.941632052151374E-04
   2.978633228369735E-04   3.016099822090111E-04   3.054037687543985E-04
   3.092452752600028E-04   3.131351019690310E-04   3.170738566748198E-04
   3.210621548158064E-04   3.251006195716884E-04   3.291898819608012E-04
   3.333305809387123E-04   3.375233634980612E-04   3.417688847696539E-04
   3.460678081248253E-04   3.504208052790971E-04   3.548285563971303E-04
   3.592917501990046E-04   3.638110840678330E-04   3.683872641587256E-04
   3.730210055091330E-04   3.777130321505685E-04   3.824640772217402E-04
   3.872748830831077E-04   3.921462014328731E-04   3.970787934244404E-04
   4.020734297853435E-04   4.071308909376747E-04   4.122519671200300E-04
   4.174374585109802E-04   4.226881753541062E-04   4.280049380845971E-04
   4.333885774574461E-04   4.388399346772595E-04   4.443598615296922E-04
   4.499492205145466E-04   4.556088849805351E-04   4.613397392617449E-04
   4.671426788158181E-04   4.730186103638647E-04   4.789684520321449E-04
   4.849931334955240E-04   4.910935961227374E-04   4.972707931234837E-04
   5.035256896973599E-04   5.098592631846827E-04   5.162725032191950E-04
   5.227664118826992E-04   5.293420038616376E-04   5.360003066056332E-04
   5.427423604880373E-04   5.495692189684858E-04   5.564819487575048E-04
   5.634816299831894E-04   5.705693563599702E-04   5.777462353595152E-04
   5.850133883837688E-04   5.923719509401760E-04   5.998230728191087E-04
   6.073679182735178E-04   6.150076662008573E-04   6.227435103272836E-04
   6.305766593941794E-04   6.385083373470249E-04   6.465397835266350E-04
   6.546722528628171E-04   6.629070160704502E-04   6.712453598480383E-04
   6.796885870787633E-04   6.882380170340554E-04   6.968949855797406E-04
   7.056608453847665E-04   7.145369661325614E-04   7.235247347350524E-04
   7.326255555493671E-04   7.418408505972754E-04   7.511720597873764E-04
   7.606206411400903E-04   7.701880710154772E-04   7.798758443439198E-04
   7.896854748597113E-04   7.996184953375771E-04   8.096764578321757E-04
   8.198609339206103E-04   8.301735149479897E-04   8.406158122760812E-04
   8.511894575350870E-04   8.618961028785909E-04   8.727374212417109E-04
   8.837151066024977E-04   8.948308742466241E-04   9.060864610353988E-04
   9.174836256771572E-04   9.290241490020630E-04   9.407098342403643E-04
   9.525425073041552E-04   9.645240170726750E-04   9.766562356812013E-04
   9.889410588135759E-04   1.001380405998406E-03   1.013976220908998E-03
   1.026730471667057E-03   1.039645151150214E-03   1.052722277303413E-03
   1.065963893454219E-03   1.079372068632099E-03   1.092948897891703E-03
   1.106696502640223E-03   1.120617030968873E-03   1.134712657988524E-03
   1.148985586169577E-03   1.163438045686099E-03   1.178072294764292E-03
   1.192890620035348E-03   1.207895336892740E-03   1.223088789854004E-03
   1.238473352927076E-03   1.254051429981235E-03   1.269825455122718E-03
   1.285797893075043E-03   1.301971239564137E-03   1.318348021708295E-03
   1.334930798413043E-03   1.351722160770982E-03   1.368724732466641E-03
   1.385941170186441E-03   1.403374164033802E-03   1.421026437949478E-03
   1.438900750137187E-03   1.456999893494569E-03   1.475326696049601E-03
   1.493884021402465E-03   1.512674769173003E-03   1.531701875453786E-03
   1.550968313268880E-03   1.570477093038393E-03   1.590231263048853E-03
   1.610233909929514E-03   1.630488159134649E-03   1.650997175431902E-03
   1.671764163396797E-03   1.692792367913453E-03   1.714085074681607E-03
   1.735645610730015E-03   1.757477344936297E-03   1.779583688553341E-03
   1.801968095742313E-03   1.824634064112376E-03   1.847585135267205E-03
   1.870824895358359E-03   1.894356975645637E-03   1.918185053064459E-03
   1.942312850800399E-03   1.966744138870943E-03   1.991482734714558E-03
   2.016532503787175E-03   2.041897360166177E-03   2.067581267161976E-03
   2.093588237937295E-03   2.119922336134232E-03   2.146587676509206E-03
   2.173588425575900E-03   2.200928802256290E-03   2.228613078539856E-03
   2.256645580151094E-03   2.285030687225412E-03   2.313772834993540E-03
   2.342876514474542E-03   2.372346273177549E-03   2.402186715812318E-03
   2.432402505008719E-03   2.462998362045289E-03   2.493979067586938E-03
   2.525349462431935E-03   2.557114448268303E-03   2.589278988439702E-03
   2.621848108720974E-03   2.654826898103426E-03   2.688220509589990E-03
   2.722034161000408E-03   2.756273135786503E-03   2.790942783857747E-03
   2.826048522417185E-03   2.861595836807889E-03   2.897590281370058E-03
   2.934037480308885E-03   2.970943128573356E-03   3.008312992746097E-03
   3.046152911944413E-03   3.084468798732668E-03   3.123266640046127E-03
   3.162552498126428E-03   3.202332511468823E-03   3.242612895781330E-03
   3.283399944955952E-03   3.324700032052103E-03   3.366519610292416E-03
   3.408865214071075E-03   3.451743459974820E-03   3.495161047816815E-03
   3.539124761683493E-03   3.583641470994589E-03   3.628718131576502E-03
   3.674361786749156E-03   3.720579568426540E-03   3.767378698231068E-03
   3.814766488621986E-03   3.862750344037955E-03   3.911337762054001E-03
   3.960536334553052E-03   4.010353748912150E-03   4.060797789203643E-03
   4.111876337411458E-03   4.163597374662666E-03   4.215968982474574E-03
   4.268999344017448E-03   4.322696745393173E-03   4.377069576929959E-03
   4.432126334493359E-03   4.487875620813749E-03   4.544326146830551E-03
   4.601486733053297E-03   4.659366310939880E-03   4.717973924292103E-03
   4.777318730668785E-03   4.837410002816667E-03   4.898257130119278E-03
   4.959869620064051E-03   5.022257099727892E-03   5.085429317281423E-03
   5.149396143512170E-03   5.214167573366868E-03   5.279753727513211E-03
   5.346164853921221E-03   5.413411329464508E-03   5.481503661541699E-03
   5.550452489718211E-03   5.620268587388727E-03   5.690962863460547E-03
   5.762546364058131E-03   5.835030274249097E-03   5.908425919791874E-03
   5.982744768905405E-03   6.057998434061067E-03   6.134198673797139E-03
   6.211357394556121E-03   6.289486652545107E-03   6.368598655619614E-03
   6.448705765191075E-03   6.529820498158336E-03   6.611955528863463E-03
   6.695123691072102E-03   6.779337979978808E-03   6.864611554237554E-03
   6.950957738017806E-03   7.038390023086460E-03   7.126922070915940E-03
   7.216567714818834E-03   7.307340962109391E-03   7.399255996292171E-03
   7.492327179278282E-03   7.586569053629413E-03   7.681996344830169E-03
   7.778623963588947E-03   7.876467008167763E-03   7.975540766741406E-03
   8.075860719786219E-03   8.177442542498964E-03   8.280302107246111E-03
   8.384455486043912E-03   8.489918953069725E-03   8.596708987204826E-03
   8.704842274609320E-03   8.814335711329360E-03   8.925206405937193E-03
   9.037471682204435E-03   9.151149081808901E-03   9.266256367075556E-03
   9.382811523751913E-03   9.500832763818325E-03   9.620338528333687E-03
   9.741347490316831E-03   9.863878557664263E-03   9.987950876104549E-03
   1.011358383218986E-02   1.024079705632520E-02   1.036961042583566E-02
   1.050004406807230E-02   1.063211836355707E-02   1.076585394916735E-02
   1.090127172136051E-02   1.103839283943893E-02   1.117723872885630E-02
   1.131783108456532E-02   1.146019187440760E-02   1.160434334254621E-02
   1.175030801294132E-02   1.189810869286963E-02   1.204776847648809E-02
   1.219931074844237E-02   1.235275918752080E-02   1.250813777035415E-02
   1.266547077516214E-02   1.282478278554684E-02   1.298609869433399E-02
   1.314944370746257E-02   1.331484334792319E-02   1.348232345974618E-02
   1.365191021203976E-02   1.382363010307898E-02   1.399750996444622E-02
   1.417357696522355E-02   1.435185861623807E-02   1.453238277436046E-02
   1.471517764685769E-02   1.490027179580052E-02   1.508769414252628E-02
   1.527747397215796E-02   1.546964093818006E-02   1.566422506707196E-02
   1.586125676299972E-02   1.606076681256667E-02   1.626278638962397E-02
   1.646734706014155E-02   1.667448078714033E-02   1.688421993568662E-02
   1.709659727794907E-02   1.731164599831950E-02   1.752939969859798E-02
   1.774989240324320E-02   1.797315856468887E-02   1.819923306872695E-02
   1.842815123995864E-02   1.865994884731395E-02   1.889466210964059E-02
   1.913232770136336E-02   1.937298275821451E-02   1.961666488303625E-02
   1.986341215165639E-02   2.011326311883764E-02   2.036625682430197E-02
   2.062243279883057E-02   2.088183107044066E-02   2.114449217063991E-02
   2.141045714075961E-02   2.167976753836749E-02   2.195246544376106E-02
   2.222859346654287E-02   2.250819475227825E-02   2.279131298923692E-02
   2.307799241521947E-02   2.336827782446944E-02   2.366221457467262E-02
   2.395984859404423E-02   2.426122638850534E-02   2.456639504894952E-02
   2.487540225860081E-02   2.518829630046442E-02   2.550512606487095E-02
   2.582594105711568E-02   2.615079140519390E-02   2.647972786763337E-02
   2.681280184142559E-02   2.715006537005659E-02   2.749157115163889E-02
   2.783737254714569E-02   2.818752358874855E-02   2.854207898826011E-02
   2.890109414568291E-02   2.926462515786567E-02   2.963272882726872E-02
   3.000546267083928E-02   3.038288492899876E-02   3.076505457474284E-02
   3.115203132285620E-02   3.154387563924307E-02   3.194064875037509E-02
   3.234241265285812E-02   3.274923012311930E-02   3.316116472721602E-02
   3.357828083076830E-02   3.400064360901594E-02   3.442831905700233E-02
   3.486137399988634E-02   3.529987610338382E-02   3.574389388434063E-02
   3.619349672143839E-02   3.664875486603512E-02   3.710973945314214E-02
   3.757652251253903E-02   3.804917698002856E-02   3.852777670883289E-02
   3.901239648113333E-02   3.950311201975529E-02   4.000000000000000E-02
   4.050313806162539E-02   4.101260482097717E-02   4.152847988327302E-02
   4.205084385504099E-02   4.257977835671437E-02   4.311536603538527E-02
   4.365769057771808E-02   4.420683672302592E-02   4.476289027651125E-02
   4.532593812267306E-02   4.589606823888290E-02   4.647336970913134E-02
   4.705793273794764E-02   4.764984866449436E-02   4.824920997683923E-02
   4.885611032640681E-02   4.947064454261141E-02   5.009290864767460E-02
   5.072299987162882E-02   5.136101666750965E-02   5.200705872673965E-02
   5.266122699470488E-02   5.332362368652814E-02   5.399435230304016E-02
   5.467351764695185E-02   5.536122583923007E-02   5.605758433567895E-02
   5.676270194373032E-02   5.747668883944502E-02   5.819965658472805E-02
   5.893171814476064E-02   5.967298790565083E-02   6.042358169230694E-02
   6.118361678653519E-02   6.195321194536532E-02   6.273248741960677E-02
   6.352156497263776E-02   6.432056789943136E-02   6.512962104582044E-02
   6.594885082800513E-02   6.677838525230573E-02   6.761835393516367E-02
   6.846888812339462E-02   6.933012071469585E-02   7.020218627841195E-02
   7.108522107656155E-02   7.197936308512837E-02   7.288475201562040E-02
   7.380152933690004E-02   7.472983829728889E-02   7.566982394695081E-02
   7.662163316055587E-02   7.758541466023021E-02   7.856131903879394E-02
   7.954949878329168E-02   8.055010829881909E-02   8.156330393264863E-02
   8.258924399865951E-02   8.362808880207429E-02   8.468000066450700E-02
   8.574514394932638E-02   8.682368508733772E-02   8.791579260278812E-02
   8.902163713969877E-02   9.014139148852834E-02   9.127523061317216E-02
   9.242333167830019E-02   9.358587407703968E-02   9.476303945900566E-02
   9.595501175868393E-02   9.716197722417155E-02   9.838412444627803E-02
   9.962164438799329E-02   1.008747304143260E-01   1.021435783225171E-01
   1.034283863726339E-01   1.047293553185481E-01   1.060466884393043E-01
   1.073805915708829E-01   1.087312731383618E-01   1.100989441884843E-01
   1.114838184226341E-01   1.128861122302280E-01   1.143060447225266E-01
   1.157438377668704E-01   1.171997160213482E-01   1.186739069698987E-01
   1.201666409578573E-01   1.216781512279466E-01   1.232086739567212E-01
   1.247584482914718E-01   1.263277163875908E-01   1.279167234464110E-01
   1.295257177535185E-01   1.311549507175469E-01   1.328046769094620E-01
   1.344751541023372E-01   1.361666433116327E-01   1.378794088359791E-01
   1.396137182984737E-01   1.413698426884989E-01   1.431480564040632E-01
   1.449486372946776E-01   1.467718667047699E-01   1.486180295176442E-01
   1.504874141999966E-01   1.523803128469865E-01   1.542970212278789E-01
   1.562378388322582E-01   1.582030689168231E-01   1.601930185527732E-01
   1.622079986737870E-01   1.642483241246084E-01   1.663143137102404E-01
   1.684062902457584E-01   1.705245806067529E-01   1.726695157804018E-01
   1.748414309171903E-01   1.770406653832775E-01   1.792675628135226E-01
   1.815224711651803E-01   1.838057427722676E-01   1.861177344006187E-01
   1.884588073036298E-01   1.908293272787041E-01   1.932296647244113E-01
   1.956601946983602E-01   1.981212969758045E-01   2.006133561089825E-01
   2.031367614872032E-01   2.056919073976917E-01   2.082791930871940E-01
   2.108990228243636E-01   2.135518059629272E-01   2.162379570056467E-01
   2.189578956690882E-01   2.217120469492010E-01   2.245008411877262E-01
   2.273247141394379E-01   2.301841070402292E-01   2.330794666760592E-01
   2.360112454527607E-01   2.389799014667329E-01   2.419858985765180E-01
   2.450297064752794E-01   2.481118007641949E-01   2.512326630267667E-01
   2.543927809040732E-01   2.575926481709626E-01   2.608327648132045E-01
   2.641136371056174E-01   2.674357776911709E-01   2.707997056610909E-01
   2.742059466359673E-01   2.776550328478814E-01   2.811475032235720E-01
   2.846839034686399E-01   2.882647861528186E-01   2.918907107963135E-01
   2.955622439572260E-01   2.992799593200834E-01   3.030444377854740E-01
   3.068562675608171E-01   3.107160442522711E-01   3.146243709577957E-01
   3.185818583613912E-01   3.225891248285150E-01   3.266467965027058E-01
   3.307555074034190E-01   3.349158995250906E-01   3.391286229374553E-01
   3.433943358871159E-01   3.477137049004000E-01   3.520874048875045E-01
   3.565161192479495E-01   3.610005399773653E-01   3.655413677756131E-01
   3.701393121562756E-01   3.747950915575174E-01   3.795094334543411E-01
   3.842830744722605E-01   3.891167605023955E-01   3.940112468180232E-01
   3.989672981925891E-01   4.039856890192021E-01   4.090672034316404E-01
   4.142126354268678E-01   4.194227889891028E-01   4.246984782154404E-01
   4.300405274430542E-01   4.354497713780059E-01   4.409270552256642E-01
   4.464732348227746E-01   4.520891767711836E-01   4.577757585732449E-01
   4.635338687689361E-01   4.693644070746885E-01   4.752682845239758E-01
   4.812464236096616E-01   4.872997584281389E-01   4.934292348252907E-01
   4.996358105442725E-01   5.059204553751688E-01   5.122841513065217E-01
   5.187278926787653E-01   5.252526863396012E-01   5.318595518013115E-01
   5.385495214000684E-01   5.453236404572306E-01   5.521829674426838E-01
   5.591285741402259E-01   5.661615458150323E-01   5.732829813832380E-01
   5.804939935836370E-01   5.877957091515577E-01   5.951892689949140E-01
   6.026758283724717E-01   6.102565570743672E-01   6.179326396048811E-01
   6.257052753675268E-01   6.335756788524572E-01   6.415450798262270E-01
   6.496147235239543E-01   6.577858708438825E-01   6.660597985444058E-01
   6.744377994435620E-01   6.829211826210344E-01   6.915112736227066E-01
   7.002094146677716E-01   7.090169648584657E-01   7.179353003924263E-01
   7.269658147777227E-01   7.361099190506029E-01   7.453690419959607E-01
   7.547446303705954E-01   7.642381491292667E-01   7.738510816535927E-01
   7.835849299838408E-01   7.934412150536133E-01   8.034214769275068E-01
   8.135272750417450E-01   8.237601884478414E-01   8.341218160593374E-01
   8.446137769016251E-01   8.552377103649337E-01   8.659952764604830E-01
   8.768881560798589E-01   8.879180512576665E-01   8.990866854374651E-01
   9.103958037410692E-01   9.218471732412240E-01   9.334425832377089E-01
   9.451838455369299E-01   9.570727947350061E-01   9.691112885044392E-01
   9.813012078843749E-01   9.936444575745139E-01   1.006142966232736E+00
   1.018798686776444E+00   1.031613596687722E+00   1.044589698322320E+00
   1.057729019222512E+00   1.071033612433926E+00   1.084505556826316E+00
   1.098146957418404E+00   1.111959945706788E+00   1.125946679998986E+00
   1.140109345750693E+00   1.154450155907241E+00   1.168971351249398E+00
   1.183675200743479E+00   1.198564001895881E+00   1.213640081112078E+00
   1.228905794060117E+00   1.244363526038706E+00   1.260015692349919E+00
   1.275864738676580E+00   1.291913141464429E+00   1.308163408309047E+00
   1.324618078347692E+00   1.341279722656039E+00   1.358150944649902E+00
   1.375234380492049E+00   1.392532699504082E+00   1.410048604583542E+00
   1.427784832626236E+00   1.445744154953877E+00   1.463929377747122E+00
   1.482343342484024E+00   1.500988926384040E+00   1.519869042857592E+00
   1.538986641961285E+00   1.558344710858881E+00   1.577946274288022E+00
   1.597794395032877E+00   1.617892174402697E+00   1.638242752716392E+00
   1.658849309793233E+00   1.679715065449680E+00   1.700843280002511E+00
   1.722237254778239E+00   1.743900332628940E+00   1.765835898454611E+00
   1.788047379732034E+00   1.810538247050351E+00   1.833312014653341E+00
   1.856372240988519E+00   1.879722529263174E+00   1.903366528007348E+00
   1.927307931643953E+00   1.951550481066018E+00   1.976097964221208E+00
   2.000954216703712E+00   2.026123122353547E+00   2.051608613863428E+00
   2.077414673393259E+00   2.103545333192338E+00   2.130004676229428E+00
   2.156796836830702E+00   2.183926001325769E+00   2.211396408701779E+00
   2.239212351265766E+00   2.267378175315355E+00   2.295898281817850E+00
   2.324777127097919E+00   2.354019223533898E+00   2.383629140262840E+00
   2.413611503894482E+00   2.443970999234135E+00   2.474712370014716E+00
   2.505840419637957E+00   2.537360011924934E+00   2.569276071876078E+00
   2.601593586440680E+00   2.634317605296148E+00   2.667453241637008E+00
   2.701005672973846E+00   2.734980141942329E+00   2.769381957122346E+00
   2.804216493867514E+00   2.839489195145077E+00   2.875205572386363E+00
   2.911371206347990E+00   2.947991747983834E+00   2.985072919328037E+00
   3.022620514389067E+00   3.060640400055036E+00   3.099138517010439E+00
   3.138120880664366E+00   3.177593582090454E+00   3.217562788978613E+00
   3.258034746598726E+00   3.299015778776525E+00   3.340512288881651E+00
   3.382530760828240E+00   3.425077760088026E+00   3.468159934716196E+00
   3.511784016390197E+00   3.555956821461533E+00   3.600685252020873E+00
   3.645976296976498E+00   3.691837033146316E+00   3.738274626363670E+00
   3.785296332596966E+00   3.832909499083475E+00   3.881121565477338E+00
   3.929940065012003E+00   3.979372625677358E+00   4.029426971411564E+00
   4.080110923307988E+00   4.131432400837234E+00   4.183399423084569E+00
   4.236020110002961E+00   4.289302683681782E+00   4.343255469631583E+00
   4.397886898084945E+00   4.453205505313694E+00   4.509219934962773E+00
   4.565938939400762E+00   4.623371381087506E+00   4.681526233958876E+00
   4.740412584828934E+00   4.800039634809822E+00   4.860416700749399E+00
   4.921553216687061E+00   4.983458735327818E+00   5.046142929534887E+00
   5.109615593841161E+00   5.173886645979559E+00   5.238966128432744E+00
   5.304864210002266E+00   5.371591187397421E+00   5.439157486844205E+00
   5.507573665714349E+00   5.576850414175007E+00   5.646998556859080E+00
   5.718029054556561E+00   5.789953005927246E+00   5.862781649234847E+00
   5.936526364103064E+00   6.011198673293640E+00   6.086810244506784E+00
   6.163372892204356E+00   6.240898579455805E+00   6.319399419807499E+00
   6.398887679175467E+00   6.479375777761934E+00   6.560876291996079E+00
   6.643401956499044E+00   6.726965666073818E+00   6.811580477720046E+00
   6.897259612674174E+00   6.984016458475378E+00   7.071864571057298E+00
   7.160817676866267E+00   7.250889675006055E+00   7.342094639409599E+00
   7.434446821038173E+00   7.527960650108019E+00   7.622650738345199E+00
   7.718531881268664E+00   7.815619060502038E+00   7.913927446114630E+00
   8.013472398991674E+00   8.114269473234595E+00   8.216334418591334E+00
   8.319683182917226E+00   8.424331914666990E+00   8.530296965417842E+00
   8.637594892424564E+00   8.746242461206567E+00   8.856256648167486E+00
   8.967654643247892E+00   9.080453852611123E+00   9.194671901363154E+00
   9.310326636306492E+00   9.427436128728745E+00   9.546018677226394E+00
   9.666092810563871E+00   9.787677290568816E+00   9.910791115063613E+00
   1.003545352083378E+01   1.016168398663389E+01   1.028950223623100E+01
   1.041892824148667E+01   1.054998222547757E+01   1.068268466565529E+01
   1.081705629704612E+01   1.095311811549082E+01   1.109089138092536E+01
   1.123039762070278E+01   1.137165863295684E+01   1.151469649000813E+01
   1.165953354181281E+01   1.180619241945489E+01   1.195469603868242E+01
   1.210506760348799E+01   1.225733060973458E+01   1.241150884882666E+01
   1.256762641142777E+01   1.272570769122472E+01   1.288577738873906E+01
   1.304786051518673E+01   1.321198239638596E+01   1.337816867671460E+01
   1.354644532311710E+01   1.371683862916178E+01   1.388937521914940E+01
   1.406408205227315E+01   1.424098642683116E+01   1.442011598449191E+01
   1.460149871461316E+01   1.478516295861557E+01   1.497113741441089E+01
   1.515945114088622E+01   1.535013356244449E+01   1.554321447360195E+01
   1.573872404364386E+01   1.593669282133824E+01   1.613715173970941E+01
   1.634013212087122E+01   1.654566568092115E+01   1.675378453489617E+01
   1.696452120179058E+01   1.717790860963736E+01   1.739398010065315E+01
   1.761276943644796E+01   1.783431080330070E+01   1.805863881750062E+01
   1.828578853075636E+01   1.851579543567278E+01   1.874869547129668E+01
   1.898452502873252E+01   1.922332095682837E+01   1.946512056793389E+01
   1.970996164373027E+01   1.995788244113368E+01   2.020892169827318E+01
   2.046311864054337E+01   2.072051298673368E+01   2.098114495523442E+01
   2.124505527032084E+01   2.151228516851670E+01   2.178287640503718E+01
   2.205687126031355E+01   2.233431254659944E+01   2.261524361466021E+01
   2.289970836054687E+01   2.318775123245466E+01   2.347941723766835E+01
   2.377475194959473E+01   2.407380151488329E+01   2.437661266063713E+01
   2.468323270171375E+01   2.499370954811844E+01   2.530809171249016E+01
   2.562642831768163E+01   2.594876910443516E+01   2.627516443915439E+01
   2.660566532177447E+01   2.694032339373078E+01   2.727919094602782E+01
   2.762232092741017E+01   2.796976695263543E+01   2.832158331085197E+01
   2.867782497408160E+01   2.903854760580885E+01   2.940380756967896E+01
   2.977366193830428E+01   3.014816850218245E+01   3.052738577872607E+01
   3.091137302140600E+01   3.130019022901026E+01   3.169389815501848E+01
   3.209255831709516E+01   3.249623300670176E+01   3.290498529882970E+01
   3.331887906185635E+01   3.373797896752414E+01   3.416235050104606E+01
   3.459205997133767E+01   3.502717452137784E+01   3.546776213870037E+01
   3.591389166601673E+01   3.636563281197329E+01   3.682305616204324E+01
   3.728623318955553E+01   3.775523626686319E+01   3.823013867665110E+01
   3.871101462338707E+01   3.919793924491617E+01   3.969098862420105E+01