<UPF version="2.0.1">
  <PP_INFO>
    Generated using "atomic" code by A. Dal Corso  v.7.2
    Author: ADC
    Generation date: 20Sep2023
    Pseudopotential type: USPP
    Element: Os
    Functional: PBE
    Suggested minimum cutoff for wavefunctions:  54. Ry
    Suggested minimum cutoff for charge density: 270. Ry
    The Pseudo was generated with a Fully-Relativistic Calculation
    Local Potential by smoothing AE potential with Bessel fncs, cutoff radius:   2.1000
    Pseudopotential contains additional information for spin-orbit calculations.
    Valence configuration: 
    nl pn  l   occ       Rcut    Rcut US       E pseu
    5S  1  0  2.00      1.000      1.300    -6.687462
    6S  2  0  2.00      1.000      1.300    -0.447664
    5P  2  1  2.00      1.100      1.300    -4.363700
    5P  2  1  4.00      1.100      1.300    -3.466414
    5D  3  2  4.00      1.500      1.700    -0.492978
    5D  3  2  2.00      1.500      1.700    -0.416893
    Generation configuration:
    5S  1  0  2.00      1.000      1.300    -6.687462
    6S  2  0  2.00      1.000      1.300    -0.447663
    5P  2  1  2.00      1.100      1.300    -4.363699
    5P  2  1  4.00      1.100      1.300    -3.466414
    6P  3  1  0.00      1.100      1.300    -2.400000
    6P  3  1  0.00      1.100      1.300    -2.400000
    5D  3  2  4.00      1.500      1.700    -0.492978
    5D  3  2  2.00      1.500      1.700    -0.416889
    5D  3  2  0.00      1.500      1.700     0.050000
    5D  3  2  0.00      1.500      1.700     0.050000
    Pseudization used: troullier-martins
    <PP_INPUTFILE>
@input
title='Os',
zed=76.,
rel=2,
config='[Xe] 4f14 6s2 6p0 5d6',
iswitch=3,
dft='PBE'
/
@inputp
lpaw=.false.,
pseudotype=3,
file_pseudopw='Os.rel-pbe-spn-rrkjus_psl.1.0.0.UPF',
author='ADC',
lloc=-1,
rcloc=2.1,
which_augfun='PSQ',
rmatch_augfun_nc=.true.,
nlcc=.true.,
new_core_ps=.true.,
rcore=1.2,
tm=.true.
/
6
5S  1  0  2.00  0.00  1.00  1.30  0.0
6S  2  0  2.00  0.00  1.00  1.30  0.0
5P  2  1  6.00  0.00  1.10  1.30  0.0
6P  3  1  0.00 -2.40  1.10  1.30  0.0
5D  3  2  6.00  0.00  1.50  1.70  0.0
5D  3  2  0.00  0.05  1.50  1.70  0.0
    </PP_INPUTFILE>
  </PP_INFO>
    <!-- END OF HUMAN READABLE SECTION -->
  <PP_HEADER generated="Generated using 'atomic' code by A. Dal Corso  v.7.2" author="ADC" date="20Sep2023" comment="" element="Os" pseudo_type="USPP" relativistic="full" is_ultrasoft="true" is_paw="false" is_coulomb="false" has_so="true" has_wfc="false" has_gipaw="false" paw_as_gipaw="false" core_correction="true" functional="PBE" z_valence="16.000000000000000" total_psenergy="-199.12294448499176" wfc_cutoff="54.183433311664224" rho_cutoff="269.65790095624561" l_max="2" l_max_rho="4" l_local="-1" mesh_size="1275" number_of_wfc="6" number_of_proj="10"/>
  <PP_MESH mesh="1275" dx="1.2500000000000001E-002" xmin="-7.0000000000000000" rmax="100.00000000000000" zmesh="76.000000000000000">
    <PP_R>
   1.199844691519100E-05   1.214936879827661E-05   1.230218904495503E-05
   1.245693153370071E-05   1.261362044334237E-05   1.277228025684091E-05
   1.293293576511498E-05   1.309561207091462E-05   1.326033459274356E-05
   1.342712906883098E-05   1.359602156115312E-05   1.376703845950551E-05
   1.394020648562645E-05   1.411555269737233E-05   1.429310449294550E-05
   1.447288961517524E-05   1.465493615585267E-05   1.483927256012016E-05
   1.502592763091589E-05   1.521493053347444E-05   1.540631079988387E-05
   1.560009833370017E-05   1.579632341461975E-05   1.599501670321072E-05
   1.619620924570370E-05   1.639993247884276E-05   1.660621823479756E-05
   1.681509874613716E-05   1.702660665086642E-05   1.724077499752579E-05
   1.745763725035515E-05   1.767722729452272E-05   1.789957944141966E-05
   1.812472843402128E-05   1.835270945231577E-05   1.858355811880107E-05
   1.881731050405098E-05   1.905400313235126E-05   1.929367298740662E-05
   1.953635751811956E-05   1.978209464444174E-05   2.003092276329910E-05
   2.028288075459145E-05   2.053800798726753E-05   2.079634432547654E-05
   2.105793013479690E-05   2.132280628854351E-05   2.159101417415429E-05
   2.186259569965703E-05   2.213759330021765E-05   2.241604994477071E-05
   2.269800914273345E-05   2.298351495080421E-05   2.327261197984633E-05
   2.356534540185881E-05   2.386176095703441E-05   2.416190496090667E-05
   2.446582431158685E-05   2.477356649709181E-05   2.508517960276416E-05
   2.540071231878565E-05   2.572021394778509E-05   2.604373441254206E-05
   2.637132426378736E-05   2.670303468810176E-05   2.703891751591393E-05
   2.737902522959907E-05   2.772341097167940E-05   2.807212855312774E-05
   2.842523246177572E-05   2.878277787082744E-05   2.914482064748049E-05
   2.951141736165531E-05   2.988262529483430E-05   3.025850244901231E-05
   3.063910755575939E-05   3.102450008539780E-05   3.141474025629439E-05
   3.180988904426978E-05   3.221000819212609E-05   3.261516021929419E-05
   3.302540843160262E-05   3.344081693116919E-05   3.386145062641711E-05
   3.428737524221709E-05   3.471865733015686E-05   3.515536427894014E-05
   3.559756432491614E-05   3.604532656274169E-05   3.649872095617748E-05
   3.695781834901990E-05   3.742269047617063E-05   3.789340997484530E-05
   3.837005039592326E-05   3.885268621544009E-05   3.934139284622448E-05
   3.983624664968178E-05   4.033732494772556E-05   4.084470603485932E-05
   4.135846919041026E-05   4.187869469091667E-05   4.240546382267140E-05
   4.293885889442301E-05   4.347896325023661E-05   4.402586128251673E-05
   4.457963844519357E-05   4.514038126707545E-05   4.570817736536913E-05
   4.628311545937011E-05   4.686528538432539E-05   4.745477810547014E-05
   4.805168573224136E-05   4.865610153267016E-05   4.926811994795501E-05
   4.988783660721852E-05   5.051534834244952E-05   5.115075320363330E-05
   5.179415047407215E-05   5.244564068589856E-05   5.310532563578367E-05
   5.377330840084298E-05   5.444969335474259E-05   5.513458618400762E-05
   5.582809390453606E-05   5.653032487832026E-05   5.724138883037854E-05
   5.796139686590008E-05   5.869046148760529E-05   5.942869661332455E-05
   6.017621759379833E-05   6.093314123070060E-05   6.169958579488961E-05
   6.247567104488787E-05   6.326151824559455E-05   6.405725018723372E-05
   6.486299120454016E-05   6.567886719618707E-05   6.650500564445807E-05
   6.734153563516646E-05   6.818858787782532E-05   6.904629472607085E-05
   6.991479019834310E-05   7.079420999882658E-05   7.168469153865428E-05
   7.258637395737857E-05   7.349939814471184E-05   7.442390676254090E-05
   7.536004426721822E-05   7.630795693213344E-05   7.726779287056910E-05
   7.823970205884335E-05   7.922383635974419E-05   8.022034954625839E-05
   8.122939732559870E-05   8.225113736353370E-05   8.328572930902299E-05
   8.433333481916293E-05   8.539411758444589E-05   8.646824335433701E-05
   8.755587996317334E-05   8.865719735638772E-05   8.977236761706352E-05
   9.090156499282279E-05   9.204496592305277E-05   9.320274906647533E-05
   9.437509532906183E-05   9.556218789230121E-05   9.676421224182153E-05
   9.798135619637288E-05   9.921380993717469E-05   1.004617660376311E-04
   1.017254194934220E-04   1.030049677529707E-04   1.043006107482960E-04
   1.056125509262521E-04   1.069409932801607E-04   1.082861453818425E-04
   1.096482174140501E-04   1.110274222033096E-04   1.124239752531756E-04
   1.138380947779031E-04   1.152700017365451E-04   1.167199198674771E-04
   1.181880757233568E-04   1.196746987065240E-04   1.211800211048439E-04
   1.227042781280043E-04   1.242477079442659E-04   1.258105517176777E-04
   1.273930536457591E-04   1.289954609976556E-04   1.306180241527765E-04
   1.322609966399156E-04   1.339246351768667E-04   1.356091997105362E-04
   1.373149534575593E-04   1.390421629454297E-04   1.407910980541438E-04
   1.425620320583704E-04   1.443552416701512E-04   1.461710070821356E-04
   1.480096120113640E-04   1.498713437435971E-04   1.517564931782055E-04
   1.536653548736244E-04   1.555982270933766E-04   1.575554118526792E-04
   1.595372149656329E-04   1.615439460930057E-04   1.635759187906196E-04
   1.656334505583421E-04   1.677168628896983E-04   1.698264813221036E-04
   1.719626354877300E-04   1.741256591650124E-04   1.763158903308004E-04
   1.785336712131702E-04   1.807793483448966E-04   1.830532726176003E-04
   1.853557993365755E-04   1.876872882763060E-04   1.900481037366826E-04
   1.924386145999240E-04   1.948591943882158E-04   1.973102213220752E-04
   1.997920783794467E-04   2.023051533555452E-04   2.048498389234486E-04
   2.074265326954538E-04   2.100356372852056E-04   2.126775603706036E-04
   2.153527147575056E-04   2.180615184442270E-04   2.208043946868547E-04
   2.235817720653827E-04   2.263940845506761E-04   2.292417715722831E-04
   2.321252780870942E-04   2.350450546488689E-04   2.380015574786357E-04
   2.409952485359760E-04   2.440265955912090E-04   2.470960722984791E-04
   2.502041582697665E-04   2.533513391498280E-04   2.565381066920789E-04
   2.597649588354314E-04   2.630323997820977E-04   2.663409400763736E-04
   2.696910966844113E-04   2.730833930749966E-04   2.765183593013425E-04
   2.799965320839102E-04   2.835184548942733E-04   2.870846780400365E-04
   2.906957587508216E-04   2.943522612653368E-04   2.980547569195391E-04
   3.018038242359070E-04   3.056000490138365E-04   3.094440244211725E-04
   3.133363510868932E-04   3.172776371949589E-04   3.212684985793426E-04
   3.253095588202552E-04   3.294014493415809E-04   3.335448095095387E-04
   3.377402867325847E-04   3.419885365625704E-04   3.462902227971752E-04
   3.506460175836248E-04   3.550566015237169E-04   3.595226637801654E-04
   3.640449021842839E-04   3.686240233450240E-04   3.732607427593829E-04
   3.779557849242031E-04   3.827098834493747E-04   3.875237811724644E-04
   3.923982302747856E-04   3.973339923989277E-04   4.023318387677644E-04
   4.073925503049591E-04   4.125169177569853E-04   4.177057418166836E-04
   4.229598332483693E-04   4.282800130145188E-04   4.336671124040443E-04
   4.391219731621853E-04   4.446454476220336E-04   4.502383988377110E-04
   4.559017007192240E-04   4.616362381690137E-04   4.674429072202232E-04
   4.733226151767062E-04   4.792762807547926E-04   4.853048342268423E-04
   4.914092175666003E-04   4.975903845963826E-04   5.038493011361140E-04
   5.101869451542369E-04   5.166043069205239E-04   5.231023891608068E-04
   5.296822072136559E-04   5.363447891890292E-04   5.430911761289152E-04
   5.499224221699989E-04   5.568395947083726E-04   5.638437745663183E-04
   5.709360561611892E-04   5.781175476764134E-04   5.853893712346516E-04
   5.927526630731293E-04   6.002085737211764E-04   6.077582681800016E-04
   6.154029261047234E-04   6.231437419886964E-04   6.309819253501510E-04
   6.389187009211839E-04   6.469553088391261E-04   6.550930048403150E-04
   6.633330604563076E-04   6.716767632125581E-04   6.801254168295975E-04
   6.886803414267419E-04   6.973428737283658E-04   7.061143672727649E-04
   7.149961926236513E-04   7.239897375843060E-04   7.330964074144262E-04
   7.423176250497019E-04   7.516548313241486E-04   7.611094851952432E-04
   7.706830639718889E-04   7.803770635452463E-04   7.901929986224729E-04
   8.001324029633944E-04   8.101968296201610E-04   8.203878511799139E-04
   8.307070600105049E-04   8.411560685093101E-04   8.517365093551652E-04
   8.624500357634784E-04   8.732983217445479E-04   8.842830623651284E-04
   8.954059740132921E-04   9.066687946666129E-04   9.180732841637324E-04
   9.296212244793372E-04   9.413144200025949E-04   9.531546978190981E-04
   9.651439079963438E-04   9.772839238728146E-04   9.895766423506898E-04
   1.002023984192241E-03   1.014627894319957E-03   1.027390342120436E-03
   1.040313321752114E-03   1.053398852456850E-03   1.066648978875437E-03
   1.080065771367089E-03   1.093651326332929E-03   1.107407766543558E-03
   1.121337241470748E-03   1.135441927623296E-03   1.149724028887110E-03
   1.164185776869570E-03   1.178829431248220E-03   1.193657280123849E-03
   1.208671640378012E-03   1.223874858035046E-03   1.239269308628641E-03
   1.254857397573022E-03   1.270641560538801E-03   1.286624263833553E-03
   1.302808004787188E-03   1.319195312142155E-03   1.335788746448567E-03
   1.352590900464295E-03   1.369604399560087E-03   1.386831902129794E-03
   1.404276100005740E-03   1.421939718879333E-03   1.439825518726960E-03
   1.457936294241236E-03   1.476274875267681E-03   1.494844127246892E-03
   1.513646951662269E-03   1.532686286493382E-03   1.551965106675034E-03
   1.571486424562100E-03   1.591253290400220E-03   1.611268792802394E-03
   1.631536059231596E-03   1.652058256489438E-03   1.672838591210994E-03
   1.693880310365845E-03   1.715186701765417E-03   1.736761094576714E-03
   1.758606859842507E-03   1.780727411008062E-03   1.803126204454506E-03
   1.825806740038885E-03   1.848772561641029E-03   1.872027257717285E-03
   1.895574461861227E-03   1.919417853371413E-03   1.943561157826275E-03
   1.968008147666251E-03   1.992762642783246E-03   2.017828511117480E-03
   2.043209669261882E-03   2.068910083074048E-03   2.094933768295926E-03
   2.121284791181275E-03   2.147967269131032E-03   2.174985371336665E-03
   2.202343319431613E-03   2.230045388150924E-03   2.258095905999195E-03
   2.286499255926910E-03   2.315259876015283E-03   2.344382260169717E-03
   2.373870958821985E-03   2.403730579641247E-03   2.433965788254003E-03
   2.464581308973119E-03   2.495581925535991E-03   2.526972481852029E-03
   2.558757882759522E-03   2.590943094792027E-03   2.623533146954410E-03
   2.656533131508625E-03   2.689948204769396E-03   2.723783587909905E-03
   2.758044567777603E-03   2.792736497720304E-03   2.827864798422640E-03
   2.863434958753066E-03   2.899452536621500E-03   2.935923159847761E-03
   2.972852527040933E-03   3.010246408489770E-03   3.048110647064328E-03
   3.086451159128919E-03   3.125273935466555E-03   3.164585042215029E-03
   3.204390621814747E-03   3.244696893968508E-03   3.285510156613338E-03
   3.326836786904559E-03   3.368683242212238E-03   3.411056061130153E-03
   3.453961864497466E-03   3.497407356433247E-03   3.541399325383998E-03
   3.585944645184377E-03   3.631050276131227E-03   3.676723266071151E-03
   3.722970751501751E-03   3.769799958686712E-03   3.817218204784939E-03
   3.865232898993854E-03   3.913851543707114E-03   3.963081735686873E-03
   4.012931167250780E-03   4.063407627473946E-03   4.114519003405972E-03
   4.166273281303334E-03   4.218678547877249E-03   4.271742991557233E-03
   4.325474903770581E-03   4.379882680237890E-03   4.434974822284927E-03
   4.490759938170973E-03   4.547246744433875E-03   4.604444067252045E-03
   4.662360843823537E-03   4.721006123762523E-03   4.780389070513309E-03
   4.840518962782136E-03   4.901405195987013E-03   4.963057283725751E-03
   5.025484859262489E-03   5.088697677032915E-03   5.152705614168408E-03
   5.217518672039381E-03   5.283146977817984E-03   5.349600786060517E-03
   5.416890480309721E-03   5.485026574717215E-03   5.554019715686389E-03
   5.623880683535879E-03   5.694620394184047E-03   5.766249900854599E-03
   5.838780395803682E-03   5.912223212068707E-03   5.986589825239128E-03
   6.061891855249554E-03   6.138141068195377E-03   6.215349378171246E-03
   6.293528849132686E-03   6.372691696781087E-03   6.452850290472452E-03
   6.534017155150129E-03   6.616204973301854E-03   6.699426586941438E-03
   6.783694999615320E-03   6.869023378434426E-03   6.955425056131549E-03
   7.042913533144609E-03   7.131502479726148E-03   7.221205738079298E-03
   7.312037324520680E-03   7.404011431670476E-03   7.497142430670040E-03
   7.591444873427457E-03   7.686933494891263E-03   7.783623215352834E-03
   7.881529142777708E-03   7.980666575166230E-03   8.081051002943920E-03
   8.182698111381847E-03   8.285623783047504E-03   8.389844100286497E-03
   8.495375347735422E-03   8.602234014866414E-03   8.710436798563608E-03
   8.820000605732101E-03   8.930942555939668E-03   9.043279984091740E-03
   9.157030443140028E-03   9.272211706825179E-03   9.388841772453985E-03
   9.506938863711482E-03   9.626521433508445E-03   9.747608166864711E-03
   9.870217983828712E-03   9.994370042433802E-03   1.012008374169172E-02
   1.024737872462375E-02   1.037627488132996E-02   1.050679235209707E-02
   1.063895153054543E-02   1.077277306681556E-02   1.090827787079474E-02
   1.104548711538431E-02   1.118442223980787E-02   1.132510495296129E-02
   1.146755723680472E-02   1.161180134979731E-02   1.175785983037521E-02
   1.190575550047316E-02   1.205551146909050E-02   1.220715113590202E-02
   1.236069819491416E-02   1.251617663816729E-02   1.267361075948450E-02
   1.283302515826754E-02   1.299444474334055E-02   1.315789473684210E-02
   1.332340067816624E-02   1.349098842795302E-02   1.366068417212928E-02
   1.383251442600033E-02   1.400650603839289E-02   1.418268619585042E-02
   1.436108242688095E-02   1.454172260625853E-02   1.472463495937870E-02
   1.490984806666877E-02   1.509739086805358E-02   1.528729266747741E-02
   1.547958313748278E-02   1.567429232384683E-02   1.587145065027606E-02
   1.607108892316013E-02   1.627323833638533E-02   1.647793047620875E-02
   1.668519732619369E-02   1.689507127220712E-02   1.710758510748015E-02
   1.732277203773187E-02   1.754066568635794E-02   1.776130009968427E-02
   1.798470975228679E-02   1.821092955237831E-02   1.843999484726281E-02
   1.867194142885866E-02   1.890680553929112E-02   1.914462387655528E-02
   1.938543360025021E-02   1.962927233738514E-02   1.987617818825886E-02
   2.012618973241289E-02   2.037934603465965E-02   2.063568665118643E-02
   2.089525163573611E-02   2.115808154586558E-02   2.142421744928304E-02
   2.169370093026484E-02   2.196657409615320E-02   2.224287958393542E-02
   2.252266056690612E-02   2.280596076141311E-02   2.309282443368814E-02
   2.338329640676367E-02   2.367742206747644E-02   2.397524737355934E-02
   2.427681886082238E-02   2.458218365042398E-02   2.489138945623382E-02
   2.520448459228811E-02   2.552151798033888E-02   2.584253915749801E-02
   2.616759828397753E-02   2.649674615092733E-02   2.683003418837126E-02
   2.716751447324326E-02   2.750923973752444E-02   2.785526337648256E-02
   2.820563945701526E-02   2.856042272609793E-02   2.891966861933820E-02
   2.928343326963775E-02   2.965177351596327E-02   3.002474691222768E-02
   3.040241173628296E-02   3.078482699902621E-02   3.117205245362029E-02
   3.156414860483023E-02   3.196117671847748E-02   3.236319883101251E-02
   3.277027775920832E-02   3.318247710997566E-02   3.359986129030167E-02
   3.402249551731377E-02   3.445044582846976E-02   3.488377909187642E-02
   3.532256301673779E-02   3.576686616393480E-02   3.621675795673825E-02
   3.667230869165594E-02   3.713358954941710E-02   3.760067260609429E-02
   3.807363084436528E-02   3.855253816491717E-02   3.903746939799300E-02
   3.952850031508463E-02   4.002570764077192E-02   4.052916906471093E-02
   4.103896325377362E-02   4.155516986433907E-02   4.207786955474045E-02
   4.260714399786793E-02   4.314307589392991E-02   4.368574898337568E-02
   4.423524805997935E-02   4.479165898408971E-02   4.535506869604575E-02
   4.592556522976107E-02   4.650323772647991E-02   4.708817644870501E-02
   4.768047279430185E-02   4.828021931077956E-02   4.888750970975136E-02
   4.950243888157782E-02   5.012510291019293E-02   5.075559908811807E-02
   5.139402593166388E-02   5.204048319632339E-02   5.269507189235959E-02
   5.335789430058785E-02   5.402905398835804E-02   5.470865582573698E-02
   5.539680600189421E-02   5.609361204169503E-02   5.679918282250059E-02
   5.751362859118101E-02   5.823706098134129E-02   5.896959303076401E-02
   5.971133919907247E-02   6.046241538561434E-02   6.122293894757196E-02
   6.199302871829927E-02   6.277280502588951E-02   6.356238971197742E-02
   6.436190615077640E-02   6.517147926835676E-02   6.599123556216530E-02
   6.682130312079054E-02   6.766181164397751E-02   6.851289246289277E-02
   6.937467856064591E-02   7.024730459306816E-02   7.113090690975220E-02
   7.202562357535797E-02   7.293159439118453E-02   7.384896091701519E-02
   7.477786649323616E-02   7.571845626323330E-02   7.667087719607210E-02
   7.763527810946076E-02   7.861180969300423E-02   7.960062453174935E-02
   8.060187713002613E-02   8.161572393559041E-02   8.264232336406797E-02
   8.368183582370828E-02   8.473442374044821E-02   8.580025158329095E-02
   8.687948589000571E-02   8.797229529314832E-02   8.907885054641149E-02
   9.019932455130504E-02   9.133389238417151E-02   9.248273132354343E-02
   9.364602087784206E-02   9.482394281342717E-02   9.601668118299785E-02
   9.722442235435066E-02   9.844735503950112E-02   9.968567032416906E-02
   1.009395616976372E-01   1.022092250829839E-01   1.034948588676959E-01
   1.047966639346682E-01   1.061148436935905E-01   1.074496041127322E-01
   1.088011537511247E-01   1.101697037911482E-01   1.115554680715313E-01
   1.129586631207618E-01   1.143795081909211E-01   1.158182252919423E-01
   1.172750392262992E-01   1.187501776241333E-01   1.202438709788201E-01
   1.217563526829854E-01   1.232878590649728E-01   1.248386294257701E-01
   1.264089060764015E-01   1.279989343757880E-01   1.296089627690866E-01
   1.312392428265096E-01   1.328900292826323E-01   1.345615800761975E-01
   1.362541563904170E-01   1.379680226937838E-01   1.397034467813949E-01
   1.414606998167941E-01   1.432400563743441E-01   1.450417944821264E-01
   1.468661956653864E-01   1.487135449905209E-01   1.505841311096200E-01
   1.524782463055711E-01   1.543961865377265E-01   1.563382514881499E-01
   1.583047446084413E-01   1.602959731671510E-01   1.623122482977930E-01
   1.643538850474581E-01   1.664212024260424E-01   1.685145234560927E-01
   1.706341752232781E-01   1.727804889275004E-01   1.749537999346419E-01
   1.771544478289699E-01   1.793827764661943E-01   1.816391340271986E-01
   1.839238730724427E-01   1.862373505970501E-01   1.885799280865914E-01
   1.909519715735648E-01   1.933538516945913E-01   1.957859437483270E-01
   1.982486277541025E-01   2.007422885113050E-01   2.032673156595003E-01
   2.058241037393180E-01   2.084130522540978E-01   2.110345657323115E-01
   2.136890537907744E-01   2.163769311986456E-01   2.190986179422387E-01
   2.218545392906454E-01   2.246451258621824E-01   2.274708136916798E-01
   2.303320442986091E-01   2.332292647560743E-01   2.361629277606665E-01
   2.391334917031983E-01   2.421414207403299E-01   2.451871848670923E-01
   2.482712599903274E-01   2.513941280030483E-01   2.545562768597344E-01
   2.577582006525792E-01   2.610003996886886E-01   2.642833805682588E-01
   2.676076562637320E-01   2.709737461999479E-01   2.743821763353084E-01
   2.778334792439556E-01   2.813281941989914E-01   2.848668672567378E-01
   2.884500513420589E-01   2.920783063347587E-01   2.957521991570609E-01
   2.994723038621938E-01   3.032392017240869E-01   3.070534813281937E-01
   3.109157386634638E-01   3.148265772154625E-01   3.187866080606708E-01
   3.227964499619654E-01   3.268567294653006E-01   3.309680809976105E-01
   3.351311469659355E-01   3.393465778578035E-01   3.436150323428683E-01
   3.479371773758264E-01   3.523136883006336E-01   3.567452489560251E-01
   3.612325517823697E-01   3.657762979298644E-01   3.703771973680876E-01
   3.750359689969384E-01   3.797533407589610E-01   3.845300497530914E-01
   3.893668423498287E-01   3.942644743078556E-01   3.992237108921310E-01
   4.042453269934597E-01   4.093301072495745E-01   4.144788461677364E-01
   4.196923482488750E-01   4.249714281132990E-01   4.303169106279759E-01
   4.357296310354252E-01   4.412104350842232E-01   4.467601791611520E-01
   4.523797304250162E-01   4.580699669421322E-01   4.638317778235334E-01
   4.696660633638935E-01   4.755737351821965E-01   4.815557163641847E-01
   4.876129416065867E-01   4.937463573631711E-01   4.999569219926290E-01
   5.062456059083176E-01   5.126133917298951E-01   5.190612744368494E-01
   5.255902615239728E-01   5.322013731587820E-01   5.388956423409185E-01
   5.456741150635633E-01   5.525378504768685E-01   5.594879210534577E-01
   5.665254127559995E-01   5.736514252068883E-01   5.808670718600696E-01
   5.881734801750113E-01   5.955717917928784E-01   6.030631627149147E-01
   6.106487634830655E-01   6.183297793628861E-01   6.261074105287330E-01
   6.339828722513002E-01   6.419573950875060E-01   6.500322250727656E-01
   6.582086239156949E-01   6.664878691952456E-01   6.748712545603383E-01
   6.833600899319933E-01   6.919557017080059E-01   7.006594329702065E-01
   7.094726436943101E-01   7.183967109624242E-01   7.274330291782169E-01
   7.365830102847916E-01   7.458480839853141E-01   7.552296979663978E-01
   7.647293181243157E-01   7.743484287940455E-01   7.840885329811972E-01
   7.939511525968692E-01   8.039378286954392E-01   8.140501217153669E-01
   8.242896117230121E-01   8.346578986595177E-01   8.451566025908152E-01
   8.557873639607502E-01   8.665518438474171E-01   8.774517242227001E-01
   8.884887082150810E-01   8.996645203757661E-01   9.109809069481400E-01
   9.224396361406297E-01   9.340424984029859E-01   9.457913067060404E-01
   9.576878968249967E-01   9.697341276262611E-01   9.819318813579067E-01
   9.942830639437721E-01   1.006789605281262E+00   1.019453459542907E+00
   1.032276605481699E+00   1.045261046740281E+00   1.058408812164017E+00
   1.071721956118002E+00   1.085202558808067E+00   1.098852726605806E+00
   1.112674592377711E+00   1.126670315818430E+00   1.140842083788222E+00
   1.155192110654670E+00   1.169722638638662E+00   1.184435938164761E+00
   1.199334308215953E+00   1.214420076692867E+00   1.229695600777523E+00
   1.245163267301634E+00   1.260825493119564E+00   1.276684725485966E+00
   1.292743442438159E+00   1.309004153183341E+00   1.325469398490646E+00
   1.342141751088154E+00   1.359023816064880E+00   1.376118231277819E+00
   1.393427667764132E+00   1.410954830158481E+00   1.428702457115653E+00
   1.446673321738469E+00   1.464870232011084E+00   1.483296031237754E+00
   1.501953598487093E+00   1.520845849041943E+00   1.539975734854893E+00
   1.559346245009517E+00   1.578960406187442E+00   1.598821283141250E+00
   1.618931979173376E+00   1.639295636620993E+00   1.659915437347002E+00
   1.680794603237224E+00   1.701936396703802E+00   1.723344121194982E+00
   1.745021121711272E+00   1.766970785328099E+00   1.789196541725067E+00
   1.811701863721825E+00   1.834490267820726E+00   1.857565314756276E+00
   1.880930610051500E+00   1.904589804581331E+00   1.928546595143042E+00
   1.952804725033903E+00   1.977367984636066E+00   2.002240212008811E+00
   2.027425293488275E+00   2.052927164294672E+00   2.078749809147203E+00
   2.104897262886667E+00   2.131373611105899E+00   2.158182990788184E+00
   2.185329590953633E+00   2.212817653313756E+00   2.240651472934226E+00
   2.268835398905978E+00   2.297373835024795E+00   2.326271240479374E+00
   2.355532130548114E+00   2.385161077304623E+00   2.415162710332105E+00
   2.445541717446767E+00   2.476302845430270E+00   2.507450900771447E+00
   2.538990750417323E+00   2.570927322533565E+00   2.603265607274549E+00
   2.636010657563050E+00   2.669167589879801E+00   2.702741585062939E+00
   2.736737889117508E+00   2.771161814035194E+00   2.806018738624290E+00
   2.841314109350185E+00   2.877053441186371E+00   2.913242318476147E+00
   2.949886395805227E+00   2.986991398885238E+00   3.024563125448406E+00
   3.062607446153451E+00   3.101130305502876E+00   3.140137722771840E+00
   3.179635792948642E+00   3.219630687687110E+00   3.260128656270926E+00
   3.301136026590060E+00   3.342659206129569E+00   3.384704682970723E+00
   3.427279026804826E+00   3.470388889959727E+00   3.514041008439239E+00
   3.558242202975697E+00   3.602999380095665E+00   3.648319533199131E+00
   3.694209743652231E+00   3.740677181893696E+00   3.787729108555308E+00
   3.835372875596318E+00   3.883615927452267E+00   3.932465802198165E+00
   3.981930132726314E+00   4.032016647939008E+00   4.082733173956137E+00
   4.134087635338082E+00   4.186088056323922E+00   4.238742562085218E+00
   4.292059379995636E+00   4.346046840916433E+00   4.400713380498225E+00
   4.456067540499046E+00   4.512117970119005E+00   4.568873427351778E+00
   4.626342780353011E+00   4.684535008826041E+00   4.743459205424970E+00
   4.803124577175380E+00   4.863540446913016E+00   4.924716254740424E+00
   4.986661559502046E+00   5.049386040277793E+00   5.112899497895379E+00
   5.177211856461795E+00   5.242333164913894E+00   5.308273598588620E+00
   5.375043460812901E+00   5.442653184513537E+00   5.511113333847425E+00
   5.580434605852165E+00   5.650627832117552E+00   5.721703980478009E+00
   5.793674156726301E+00   5.866549606348915E+00   5.940341716283099E+00
   6.015062016696170E+00   6.090722182787100E+00   6.167334036610750E+00
   6.244909548925170E+00   6.323460841061966E+00   6.403000186820358E+00
   6.483540014384958E+00   6.565092908267658E+00   6.647671611274072E+00
   6.731289026494530E+00   6.815958219320289E+00   6.901692419485006E+00
   6.988505023131857E+00   7.076409594906808E+00   7.165419870078019E+00
   7.255549756682089E+00   7.346813337697184E+00   7.439224873243489E+00
   7.532798802811472E+00   7.627549747517979E+00   7.723492512390906E+00
   7.820642088682477E+00   7.919013656211608E+00   8.018622585735896E+00
   8.119484441353206E+00   8.221614982933696E+00   8.325030168582291E+00
   8.429746157132117E+00   8.535779310669460E+00   8.643146197090260E+00
   8.751863592688972E+00   8.861948484779861E+00   8.973418074351256E+00
   9.086289778753347E+00   9.200581234419550E+00   9.316310299622360E+00
   9.433495057263682E+00   9.552153817700281E+00   9.672305121604920E+00
   9.793967742863250E+00   9.917160691507386E+00   1.004190321668621E+01
   1.016821480967303E+01   1.029611520691127E+01   1.042562439309818E+01
   1.055676260430762E+01   1.068955033115189E+01   1.082400832198345E+01
   1.096015758613696E+01   1.109801939721189E+01   1.123761529639673E+01
   1.137896709583476E+01   1.152209688203218E+01   1.166702701930933E+01
   1.181378015329498E+01   1.196237921446490E+01   1.211284742172475E+01
   1.226520828603800E+01   1.241948561409973E+01   1.257570351205628E+01
   1.273388638927206E+01   1.289405896214348E+01   1.305624625796087E+01