<UPF version="2.0.1">
  <PP_INFO>
    Generated using "atomic" code by A. Dal Corso  v.7.2
    Author: ADC
    Generation date: 20Sep2023
    Pseudopotential type: USPP
    Element: Rb
    Functional: PBE
    Suggested minimum cutoff for wavefunctions:  35. Ry
    Suggested minimum cutoff for charge density: 259. Ry
    The Pseudo was generated with a Fully-Relativistic Calculation
    Local Potential by smoothing AE potential with Bessel fncs, cutoff radius:   1.5000
    Pseudopotential contains additional information for spin-orbit calculations.
    Valence configuration: 
    nl pn  l   occ       Rcut    Rcut US       E pseu
    4S  1  0  2.00      1.300      1.500    -2.343196
    5S  2  0  1.00      1.300      1.500    -0.163993
    4P  2  1  2.00      1.400      1.600    -1.216837
    4P  2  1  4.00      1.400      1.600    -1.152274
    5P  3  1  0.00      1.400      1.600    -0.056505
    5P  3  1  0.00      1.400      1.600    -0.054348
    Generation configuration:
    4S  1  0  2.00      1.300      1.500    -2.343189
    5S  2  0  1.00      1.300      1.500    -0.163995
    4P  2  1  2.00      1.400      1.600    -1.216838
    4P  2  1  4.00      1.400      1.600    -1.152264
    5P  3  1  0.00      1.400      1.600    -0.056498
    5P  3  1  0.00      1.400      1.600    -0.054340
    4D  3  2  0.00      1.200      1.800     0.050000
    4D  3  2  0.00      1.200      1.800     0.050000
    4D  3  2  0.00      1.200      1.800     1.000000
    4D  3  2  0.00      1.200      1.800     1.000000
    Pseudization used: troullier-martins
    <PP_INPUTFILE>
@input
title='Rb',
zed=37.,
rel=2,
config='[Kr] 5s1 5p0 4d-1',
iswitch=3,
dft='PBE'
/
@inputp
lpaw=.false.,
pseudotype=3,
file_pseudopw='Rb.rel-pbe-spn-rrkjus_psl.1.0.0.UPF',
author='ADC',
lloc=-1,
rcloc=1.5,
which_augfun='PSQ',
rmatch_augfun_nc=.true.,
nlcc=.true.,
new_core_ps=.true.,
rcore=1.2,
tm=.true.
/
6
4S  1  0  2.00  0.00  1.30  1.50  0.0
5S  2  0  1.00  0.00  1.30  1.50  0.0
4P  2  1  6.00  0.00  1.40  1.60  0.0
5P  3  1  0.00  0.00  1.40  1.60  0.0
4D  3  2  0.00  0.05  1.20  1.80  0.0
4D  3  2  0.00  1.00  1.20  1.80  0.0
    </PP_INPUTFILE>
  </PP_INFO>
    <!-- END OF HUMAN READABLE SECTION -->
  <PP_HEADER generated="Generated using 'atomic' code by A. Dal Corso  v.7.2" author="ADC" date="20Sep2023" comment="" element="Rb" pseudo_type="USPP" relativistic="full" is_ultrasoft="true" is_paw="false" is_coulomb="false" has_so="true" has_wfc="false" has_gipaw="false" paw_as_gipaw="false" core_correction="true" functional="PBE" z_valence="9.0000000000000000" total_psenergy="-59.121520765122185" wfc_cutoff="34.614319350713636" rho_cutoff="258.74482068130982" l_max="2" l_max_rho="4" l_local="-1" mesh_size="1219" number_of_wfc="6" number_of_proj="10"/>
  <PP_MESH mesh="1219" dx="1.2500000000000001E-002" xmin="-7.0000000000000000" rmax="100.00000000000000" zmesh="37.000000000000000">
    <PP_R>
   2.464545852850044E-05   2.495546023429790E-05   2.526936128152925E-05
   2.558721071787173E-05   2.590905820794648E-05   2.623495404107862E-05
   2.656494913915510E-05   2.689909506458139E-05   2.723744402833812E-05
   2.758004889813931E-05   2.792696320669289E-05   2.827824116006537E-05
   2.863393764615162E-05   2.899410824325127E-05   2.935880922875291E-05
   2.972809758792752E-05   3.010203102283252E-05   3.048066796132790E-05
   3.086406756620561E-05   3.125228974443400E-05   3.164539515651823E-05
   3.204344522597872E-05   3.244650214894867E-05   3.285462890389229E-05
   3.326788926144543E-05   3.368634779437972E-05   3.411006988769228E-05
   3.453912174882228E-05   3.497357041799589E-05   3.541348377870162E-05
   3.585893056829707E-05   3.630998038874937E-05   3.676670371751064E-05
   3.722917191853019E-05   3.769745725340537E-05   3.817163289267248E-05
   3.865177292723985E-05   3.913795237996474E-05   3.963024721737576E-05
   4.012873436154289E-05   4.063349170209655E-05   4.114459810839815E-05
   4.166213344186352E-05   4.218617856844141E-05   4.271681537124911E-05
   4.325412676336660E-05   4.379819670079207E-05   4.434911019556016E-05
   4.490695332902524E-05   4.547181326531192E-05   4.604377826493443E-05
   4.662293769858763E-05   4.720938206111134E-05   4.780320298563029E-05
   4.840449325787216E-05   4.901334683066528E-05   4.962985883861911E-05
   5.025412561298922E-05   5.088624469672912E-05   5.152631485973180E-05
   5.217443611426241E-05   5.283070973058560E-05   5.349523825278910E-05
   5.416812551480646E-05   5.484947665664146E-05   5.553939814079619E-05
   5.623799776890620E-05   5.694538469858471E-05   5.766166946047860E-05
   5.838696397553931E-05   5.912138157251041E-05   5.986503700563559E-05
   6.061804647258928E-05   6.138052763263263E-05   6.215259962499827E-05
   6.293438308750577E-05   6.372600017541169E-05   6.452757458049659E-05
   6.533923155039198E-05   6.616109790815090E-05   6.699330207206375E-05
   6.783597407572429E-05   6.868924558834752E-05   6.955324993534324E-05
   7.042812211914860E-05   7.131399884032221E-05   7.221101851890407E-05
   7.311932131604396E-05   7.403904915590184E-05   7.497034574782402E-05
   7.591335660879764E-05   7.686822908618832E-05   7.783511238076332E-05
   7.881415757000454E-05   7.980551763171477E-05   8.080934746792054E-05
   8.182580392907608E-05   8.285504583857143E-05   8.389723401754888E-05
   8.495253131003190E-05   8.602110260836937E-05   8.710311487900072E-05
   8.819873718854455E-05   8.930814073021572E-05   9.043149885057492E-05
   9.156898707661383E-05   9.272078314318201E-05   9.388706702075821E-05
   9.506802094357103E-05   9.626382943807378E-05   9.747467935177650E-05
   9.870075988244172E-05   9.994226260764681E-05   1.011993815147184E-04
   1.024723130310435E-04   1.037612560547612E-04   1.050664119858414E-04
   1.063879847575536E-04   1.077261808683322E-04   1.090812094140421E-04
   1.104532821206504E-04   1.118426133773091E-04   1.132494202698535E-04
   1.146739226147227E-04   1.161163429933065E-04   1.175769067867235E-04
   1.190558422110380E-04   1.205533803529190E-04   1.220697552057477E-04
   1.236052037061804E-04   1.251599657711688E-04   1.267342843354489E-04
   1.283284053894994E-04   1.299425780179780E-04   1.315770544386423E-04
   1.332320900417581E-04   1.349079434300059E-04   1.366048764588869E-04
   1.383231542776392E-04   1.400630453706682E-04   1.418248215994969E-04
   1.436087582452453E-04   1.454151340516438E-04   1.472442312685872E-04
   1.490963356962371E-04   1.509717367296784E-04   1.528707274041381E-04
   1.547936044407726E-04   1.567406682930309E-04   1.587122231936014E-04
   1.607085772019485E-04   1.627300422524475E-04   1.647769342031253E-04
   1.668495728850135E-04   1.689482821521233E-04   1.710733899320472E-04
   1.732252282771995E-04   1.754041334166997E-04   1.776104458089085E-04
   1.798445101946263E-04   1.821066756509586E-04   1.843972956458602E-04
   1.867167280933657E-04   1.890653354095138E-04   1.914434845689764E-04
   1.938515471623973E-04   1.962898994544565E-04   1.987589224426604E-04
   2.012590019168740E-04   2.037905285196021E-04   2.063538978070260E-04
   2.089495103108127E-04   2.115777716006966E-04   2.142390923478512E-04
   2.169338883890584E-04   2.196625807916814E-04   2.224255959194603E-04
   2.252233654991300E-04   2.280563266878792E-04   2.309249221416580E-04
   2.338296000843415E-04   2.367708143777683E-04   2.397490245926556E-04
   2.427646960804085E-04   2.458183000458331E-04   2.489103136207605E-04
   2.520412199386034E-04   2.552115082098435E-04   2.584216737984731E-04
   2.616722182993971E-04   2.649636496168062E-04   2.682964820435408E-04
   2.716712363414483E-04   2.750884398227532E-04   2.785486264324527E-04
   2.820523368317434E-04   2.856001184825042E-04   2.891925257328359E-04
   2.928301199036798E-04   2.965134693765267E-04   3.002431496822245E-04
   3.040197435909099E-04   3.078438412030643E-04   3.117160400417195E-04
   3.156369451458230E-04   3.196071691647735E-04   3.236273324541519E-04
   3.276980631726513E-04   3.318199973802280E-04   3.359937791374890E-04
   3.402200606063243E-04   3.444995021518127E-04   3.488327724454020E-04
   3.532205485693914E-04   3.576635161227281E-04   3.621623693281305E-04
   3.667178111405658E-04   3.713305533570849E-04   3.760013167280437E-04
   3.807308310697226E-04   3.855198353783583E-04   3.903690779456183E-04
   3.952793164755195E-04   4.002513182028216E-04   4.052858600129113E-04
   4.103837285631877E-04   4.155457204059847E-04   4.207726421130294E-04
   4.260653104014726E-04   4.314245522615033E-04   4.368512050855642E-04
   4.423461167992008E-04   4.479101459935474E-04   4.535441620594854E-04
   4.592490453234887E-04   4.650256871851725E-04   4.708749902565815E-04
   4.767978685032206E-04   4.827952473868658E-04   4.888680640101706E-04
   4.950172672630860E-04   5.012438179711320E-04   5.075486890455245E-04
   5.139328656351960E-04   5.203973452807279E-04   5.269431380702161E-04
   5.335712667971021E-04   5.402827671199846E-04   5.470786877244430E-04
   5.539600904868988E-04   5.609280506405336E-04   5.679836569432981E-04
   5.751280118480317E-04   5.823622316747236E-04   5.896874467849398E-04
   5.971048017584444E-04   6.046154555720433E-04   6.122205817806749E-04
   6.199213687007819E-04   6.277190195959886E-04   6.356147528651110E-04
   6.436098022325373E-04   6.517054169409966E-04   6.599028619467578E-04
   6.682034181172811E-04   6.766083824313553E-04   6.851190681817553E-04
   6.937368051804442E-04   7.024629399663608E-04   7.112988360158193E-04
   7.202458739555537E-04   7.293054517784456E-04   7.384789850619613E-04
   7.477679071893399E-04   7.571736695735628E-04   7.666977418841379E-04
   7.763416122767414E-04   7.861067876257426E-04   7.959947937596565E-04
   8.060071756995597E-04   8.161454979005000E-04   8.264113444959486E-04
   8.368063195453215E-04   8.473320472846186E-04   8.579901723802149E-04
   8.687823601858397E-04   8.797102970027954E-04   8.907756903434424E-04
   9.019802691980021E-04   9.133257843047177E-04   9.248140084234062E-04
   9.364467366124601E-04   9.482257865093254E-04   9.601529986145125E-04
   9.722302365791802E-04   9.844593874963306E-04   9.968423621956762E-04
   1.009381095542206E-03   1.022077546738516E-03   1.034933699630937E-03
   1.047951563019514E-03   1.061133170971887E-03   1.074480583141117E-03
   1.087995885087509E-03   1.101681188604493E-03   1.115538632048582E-03
   1.129570380673511E-03   1.143778626968549E-03   1.158165591001086E-03
   1.172733520763524E-03   1.187484692524525E-03   1.202421411184690E-03
   1.217546010636698E-03   1.232860854129984E-03   1.248368334640003E-03
   1.264070875242135E-03   1.279970929490295E-03   1.296070981800310E-03
   1.312373547838107E-03   1.328881174912800E-03   1.345596442374701E-03
   1.362521962018361E-03   1.379660378490660E-03   1.397014369704038E-03
   1.414586647254929E-03   1.432379956847454E-03   1.450397078722436E-03
   1.468640828091824E-03   1.487114055578575E-03   1.505819647662065E-03
   1.524760527129117E-03   1.543939653530684E-03   1.563360023644283E-03
   1.583024671942258E-03   1.602936671065911E-03   1.623099132305620E-03
   1.643515206086972E-03   1.664188082463033E-03   1.685120991612796E-03
   1.706317204345902E-03   1.727780032613718E-03   1.749512830026826E-03
   1.771518992379037E-03   1.793801958177990E-03   1.816365209182426E-03
   1.839212270946221E-03   1.862346713369259E-03   1.885772151255234E-03
   1.909492244876476E-03   1.933510700545871E-03   1.957831271195985E-03
   1.982457756965463E-03   2.007394005792808E-03   2.032643914017633E-03
   2.058211426989468E-03   2.084100539684235E-03   2.110315297328464E-03
   2.136859796031370E-03   2.163738183424880E-03   2.190954659311709E-03
   2.218513476321589E-03   2.246418940575745E-03   2.274675412359740E-03
   2.303287306804781E-03   2.332259094577581E-03   2.361595302578930E-03
   2.391300514651008E-03   2.421379372293641E-03   2.451836575389528E-03
   2.482676882938619E-03   2.513905113801716E-03   2.545526147453424E-03
   2.577544924744585E-03   2.609966448674293E-03   2.642795785171623E-03
   2.676038063887197E-03   2.709698478994696E-03   2.743782290002462E-03
   2.778294822575309E-03   2.813241469366666E-03   2.848627690861198E-03
   2.884459016228006E-03   2.920741044184576E-03   2.957479443871594E-03
   2.994679955738756E-03   3.032348392441723E-03   3.070490639750372E-03
   3.109112657468444E-03   3.148220480364784E-03   3.187820219116286E-03
   3.227918061262693E-03   3.268520272173424E-03   3.309633196026539E-03
   3.351263256800035E-03   3.393416959275603E-03   3.436100890055016E-03
   3.479321718589304E-03   3.523086198220857E-03   3.567401167238656E-03
   3.612273549946770E-03   3.657710357746289E-03   3.703718690230878E-03
   3.750305736296089E-03   3.797478775262654E-03   3.845245178013883E-03
   3.893612408147386E-03   3.942588023141282E-03   3.992179675535050E-03
   4.042395114125273E-03   4.093242185176396E-03   4.144728833646715E-03
   4.196863104429811E-03   4.249653143611558E-03   4.303107199742982E-03
   4.357233625129105E-03   4.412040877134011E-03   4.467537519502339E-03
   4.523732223697366E-03   4.580633770255952E-03   4.638251050160510E-03
   4.696593066228247E-03   4.755668934517879E-03   4.815487885754014E-03
   4.876059266769483E-03   4.937392541965804E-03   4.999497294792007E-03
   5.062383229242082E-03   5.126060171371224E-03   5.190538070831195E-03
   5.255827002424964E-03   5.321937167680921E-03   5.388878896446896E-03
   5.456662648504202E-03   5.525299015202003E-03   5.594798721112237E-03
   5.665172625705346E-03   5.736431725047111E-03   5.808587153516774E-03
   5.881650185546838E-03   5.955632237384703E-03   6.030544868876482E-03
   6.106399785273267E-03   6.183208839060068E-03   6.260984031807808E-03
   6.339737516048590E-03   6.419481597174545E-03   6.500228735360600E-03
   6.581991547511373E-03   6.664782809232611E-03   6.748615456827397E-03
   6.833502589317472E-03   6.919457470490002E-03   7.006493530970044E-03
   7.094624370319119E-03   7.183863759160183E-03   7.274225641329293E-03
   7.365724136054396E-03   7.458373540161438E-03   7.552188330308310E-03
   7.647183165246839E-03   7.743372888113245E-03   7.840772528747443E-03
   7.939397306041431E-03   8.039262630317318E-03   8.140384105735197E-03
   8.242777532731333E-03   8.346458910487025E-03   8.451444439428484E-03
   8.557750523758199E-03   8.665393774018131E-03   8.774391009685129E-03
   8.884759261799031E-03   8.996515775623775E-03   9.109678013342013E-03
   9.224263656783620E-03   9.340290610188502E-03   9.457777003004202E-03
   9.576741192718617E-03   9.697201767728427E-03   9.819177550243554E-03
   9.942687599228171E-03   1.006775121337873E-02   1.019438793413938E-02
   1.032261754875538E-02   1.045246009336491E-02   1.058393585612970E-02
   1.071706538040522E-02   1.085186946795045E-02   1.098836918217836E-02
   1.112658585144699E-02   1.126654107239212E-02   1.140825671330177E-02
   1.155175491753316E-02   1.169705810697264E-02   1.184418898553918E-02
   1.199317054273189E-02   1.214402605722221E-02   1.229677910049118E-02
   1.245145354051260E-02   1.260807354548240E-02   1.276666358759499E-02
   1.292724844686714E-02   1.308985321500980E-02   1.325450329934882E-02
   1.342122442679486E-02   1.359004264786327E-02   1.376098434074458E-02
   1.393407621542606E-02   1.410934531786531E-02   1.428681903421615E-02
   1.446652509510785E-02   1.464849157997803E-02   1.483274692146018E-02
   1.501931990982626E-02   1.520823969748530E-02   1.539953580353846E-02
   1.559323811839153E-02   1.578937690842530E-02   1.598798282072474E-02
   1.618908688786772E-02   1.639272053277388E-02   1.659891557361454E-02
   1.680770422878433E-02   1.701911912193542E-02   1.723319328707497E-02
   1.744996017372681E-02   1.766945365215804E-02   1.789170801867120E-02
   1.811675800096323E-02   1.834463876355175E-02   1.857538591326952E-02
   1.880903550482816E-02   1.904562404645172E-02   1.928518850558116E-02
   1.952776631465061E-02   1.977339537693627E-02   2.002211407247886E-02
   2.027396126408060E-02   2.052897630337754E-02   2.078719903698841E-02
   2.104866981274067E-02   2.131342948597505E-02   2.158151942592912E-02
   2.185298152220143E-02   2.212785819129682E-02   2.240619238325407E-02
   2.268802758835696E-02   2.297340784392969E-02   2.326237774121779E-02
   2.355498243235564E-02   2.385126763742150E-02   2.415127965158151E-02
   2.445506535232324E-02   2.476267220678049E-02   2.507414827915010E-02
   2.538954223820205E-02   2.570890336488417E-02   2.603228156002222E-02
   2.635972735211711E-02   2.669129190524006E-02   2.702702702702703E-02
   2.736698517677391E-02   2.771121947363323E-02   2.805978370491420E-02
   2.841273233448716E-02   2.877012051129350E-02   2.913200407796302E-02
   2.949843957953924E-02   2.986948427231481E-02   3.024519613277787E-02
   3.062563386667098E-02   3.101085691816412E-02   3.140092547914280E-02
   3.179590049861327E-02   3.219584369222592E-02   3.260081755191840E-02
   3.301088535568027E-02   3.342611117744014E-02   3.384655989707743E-02
   3.427229721056001E-02   3.470338964020923E-02   3.513990454509436E-02
   3.558191013155735E-02   3.602947546387036E-02   3.648267047502714E-02
   3.694156597767017E-02   3.740623367515545E-02   3.787674617275605E-02
   3.835317698900698E-02   3.883560056719258E-02   3.932409228697841E-02
   3.981872847618961E-02   4.031958642273705E-02   4.082674438669388E-02
   4.134028161252378E-02   4.186027834146306E-02   4.238681582405863E-02
   4.291997633286335E-02   4.345984317529145E-02   4.400650070663543E-02
   4.456003434324671E-02   4.512053057588224E-02   4.568807698321870E-02
   4.626276224553690E-02   4.684467615857828E-02   4.743390964757564E-02
   4.803055478146050E-02   4.863470478724890E-02   4.924645406460838E-02
   4.986589820060814E-02   5.049313398465466E-02   5.112825942361541E-02
   5.177137375713235E-02   5.242257747312851E-02   5.308197232350942E-02
   5.374966134006194E-02   5.442574885055344E-02   5.511034049503286E-02
   5.580354324233750E-02   5.650546540680695E-02   5.721621666520742E-02
   5.793590807386918E-02   5.866465208603900E-02   5.940256256945144E-02
   6.014975482412079E-02   6.090634560035699E-02   6.167245311700822E-02
   6.244819707993256E-02   6.323369870070249E-02   6.402908071554436E-02
   6.483446740451616E-02   6.564998461092672E-02   6.647575976099866E-02
   6.731192188377925E-02   6.815860163130134E-02   6.901593129899802E-02
   6.988404484637424E-02   7.076307791793789E-02   7.165316786439481E-02
   7.255445376411006E-02   7.346707644483906E-02   7.439117850573262E-02
   7.532690433961761E-02   7.627440015555945E-02   7.723381400170717E-02
   7.820529578842597E-02   7.918899731172176E-02   8.018507227695860E-02
   8.119367632287654E-02   8.221496704590989E-02   8.324910402481164E-02
   8.429624884558906E-02   8.535656512675051E-02   8.643021854487229E-02
   8.751737686048550E-02   8.861820994428847E-02   8.973288980369057E-02
   9.086159060968731E-02   9.200448872407616E-02   9.316176272701289E-02
   9.433359344491463E-02   9.552016397871550E-02   9.672165973247515E-02
   9.793826844234975E-02   9.917018020592558E-02   1.004175875119217E-01
   1.016806852702680E-01   1.029596708425584E-01   1.042547440728912E-01
   1.055661073190934E-01   1.068939654843399E-01   1.082385260491711E-01
   1.095999991039102E-01   1.109785973814922E-01   1.123745362907030E-01
   1.137880339498368E-01   1.152193112207790E-01   1.166685917435147E-01
   1.181361019710745E-01   1.196220712049172E-01   1.211267316307585E-01
   1.226503183548516E-01   1.241930694407214E-01   1.257552259463640E-01
   1.273370319619120E-01   1.289387346477731E-01   1.305605842732509E-01
   1.322028342556488E-01   1.338657411998679E-01   1.355495649385017E-01
   1.372545685724346E-01   1.389810185119538E-01   1.407291845183743E-01
   1.424993397461916E-01   1.442917607857616E-01   1.461067277065180E-01
   1.479445241007353E-01   1.498054371278385E-01   1.516897575592744E-01
   1.535977798239445E-01   1.555298020542089E-01   1.574861261324724E-01
   1.594670577383518E-01   1.614729063964411E-01   1.635039855246743E-01
   1.655606124832969E-01   1.676431086244560E-01   1.697517993424099E-01
   1.718870141243738E-01   1.740490866020017E-01   1.762383546035166E-01
   1.784551602064982E-01   1.806998497913317E-01   1.829727740953317E-01
   1.852742882675455E-01   1.876047519242442E-01   1.899645292051163E-01
   1.923539888301621E-01   1.947735041573099E-01   1.972234532407524E-01
   1.997042188900176E-01   2.022161887297861E-01   2.047597552604554E-01
   2.073353159194710E-01   2.099432731434264E-01   2.125840344309430E-01
   2.152580124063454E-01   2.179656248841318E-01   2.207072949342607E-01
   2.234834509482561E-01   2.262945267061423E-01   2.291409614442265E-01
   2.320231999237269E-01   2.349416925002703E-01   2.378968951942598E-01
   2.408892697621280E-01   2.439192837684900E-01   2.469874106591980E-01
   2.500941298353213E-01   2.532399267280523E-01   2.564252928745548E-01
   2.596507259947706E-01   2.629167300691861E-01   2.662238154175833E-01
   2.695724987787764E-01   2.729633033913528E-01   2.763967590754327E-01
   2.798734023154512E-01   2.833937763439884E-01   2.869584312266489E-01
   2.905679239480096E-01   2.942228184986527E-01   2.979236859632866E-01
   3.016711046099828E-01   3.054656599805294E-01   3.093079449819222E-01
   3.131985599790109E-01   3.171381128883031E-01   3.211272192729566E-01
   3.251665024389605E-01   3.292565935325263E-01   3.333981316387099E-01
   3.375917638812652E-01   3.418381455237627E-01   3.461379400719741E-01
   3.504918193775441E-01   3.549004637429737E-01   3.593645620279132E-01
   3.638848117568029E-01   3.684619192278585E-01   3.730965996234350E-01
   3.777895771217742E-01   3.825415850101569E-01   3.873533657994851E-01
   3.922256713402953E-01   3.971592629402417E-01   4.021549114830500E-01
   4.072133975489673E-01   4.123355115367346E-01   4.175220537870818E-01
   4.227738347077884E-01   4.280916749003090E-01   4.334764052879913E-01
   4.389288672459151E-01   4.444499127323530E-01   4.500404044218958E-01
   4.557012158402445E-01   4.614332315006989E-01   4.672373470423693E-01
   4.731144693701159E-01   4.790655167962606E-01   4.850914191840718E-01
   4.911931180930559E-01   4.973715669260830E-01   5.036277310783518E-01
   5.099625880882401E-01   5.163771277900451E-01   5.228723524686437E-01
   5.294492770161087E-01   5.361089290902793E-01   5.428523492753424E-01
   5.496805912444224E-01   5.565947219242172E-01   5.635958216617144E-01
   5.706849843929899E-01   5.778633178141444E-01   5.851319435543804E-01
   5.924919973512560E-01   5.999446292281531E-01   6.074910036739628E-01
   6.151322998250468E-01   6.228697116494757E-01   6.307044481335871E-01
   6.386377334708986E-01   6.466708072533824E-01   6.548049246651616E-01
   6.630413566786317E-01   6.713813902530500E-01   6.798263285356324E-01
   6.883774910651648E-01   6.970362139781908E-01   7.058038502177836E-01
   7.146817697449406E-01   7.236713597526528E-01   7.327740248826462E-01
   7.419911874448676E-01   7.513242876397214E-01   7.607747837830988E-01
   7.703441525342518E-01   7.800338891265145E-01   7.898455076009444E-01
   7.997805410428913E-01   8.098405418215412E-01   8.200270818324854E-01
   8.303417527433226E-01   8.407861662423692E-01   8.513619542904856E-01
   8.620707693760675E-01   8.729142847732628E-01   8.838941948034101E-01
   8.950122150997922E-01   9.062700828757018E-01   9.176695571958798E-01
   9.292124192513845E-01   9.409004726378932E-01   9.527355436375281E-01
   9.647194815042137E-01   9.768541587526198E-01   9.891414714507578E-01
   1.001583339516232E+00   1.014181707016243E+00   1.026938542471346E+00
   1.039855839163031E+00   1.052935615445190E+00   1.066179915059474E+00
   1.079590807454647E+00   1.093170388109931E+00   1.106920778862427E+00
   1.120844128238671E+00   1.134942611790325E+00   1.149218432434129E+00
   1.163673820796107E+00   1.178311035560095E+00   1.193132363820683E+00
   1.208140121440564E+00   1.223336653412399E+00   1.238724334225230E+00
   1.254305568235486E+00   1.270082790042685E+00   1.286058464869830E+00
   1.302235088948617E+00   1.318615189909472E+00   1.335201327176492E+00
   1.351996092367373E+00   1.369002109698342E+00   1.386222036394208E+00
   1.403658563103554E+00   1.421314414319147E+00   1.439192348803668E+00
   1.457295160020745E+00   1.475625676571466E+00   1.494186762636337E+00
   1.512981318422815E+00   1.532012280618483E+00   1.551282622849898E+00
   1.570795356147243E+00   1.590553529414796E+00   1.610560229907324E+00
   1.630818583712488E+00   1.651331756239280E+00   1.672102952712645E+00
   1.693135418674295E+00   1.714432440489820E+00   1.735997345862215E+00
   1.757833504351811E+00   1.779944327902803E+00   1.802333271376357E+00
   1.825003833090437E+00   1.847959555366439E+00   1.871204025082666E+00
   1.894740874234807E+00   1.918573780503431E+00   1.942706467828624E+00
   1.967142706991885E+00   1.991886316205293E+00   2.016941161708133E+00
   2.042311158370991E+00   2.068000270307456E+00   2.094012511493540E+00
   2.120351946394842E+00   2.147022690601658E+00   2.174028911472035E+00
   2.201374828782923E+00   2.229064715389544E+00   2.257102897893007E+00
   2.285493757316378E+00   2.314241729789207E+00   2.343351307240673E+00
   2.372827038101484E+00   2.402673528014549E+00   2.432895440554644E+00
   2.463497497957093E+00   2.494484481855618E+00   2.525861234029507E+00
   2.557632657160112E+00   2.589803715596942E+00   2.622379436133336E+00
   2.655364908791894E+00   2.688765287619836E+00   2.722585791494301E+00
   2.756831704937829E+00   2.791508378944077E+00   2.826621231813898E+00
   2.862175750002001E+00   2.898177488974177E+00   2.934632074075394E+00
   2.971545201408746E+00   3.008922638725469E+00   3.046770226326198E+00
   3.085093877973487E+00   3.123899581815883E+00   3.163193401323565E+00
   3.202981476235766E+00   3.243270023520150E+00   3.284065338344188E+00
   3.325373795058825E+00   3.367201848194472E+00   3.409556033469518E+00
   3.452442968811595E+00   3.495869355391594E+00   3.539841978670773E+00
   3.584367709460991E+00   3.629453504998257E+00   3.675106410029868E+00
   3.721333557915101E+00   3.768142171739869E+00   3.815539565445325E+00
   3.863533144970649E+00   3.912130409410301E+00   3.961338952185708E+00
   4.011166462231800E+00   4.061620725198405E+00   4.112709624666746E+00
   4.164441143381322E+00   4.216823364497165E+00   4.269864472842904E+00
   4.323572756199640E+00   4.377956606595902E+00   4.433024521618973E+00
   4.488785105742598E+00   4.545247071671499E+00   4.602419241702734E+00
   4.660310549104171E+00   4.718930039510391E+00   4.778286872336012E+00
   4.838390322206937E+00   4.899249780409496E+00   4.960874756357837E+00
   5.023274879079847E+00   5.086459898721635E+00   5.150439688071081E+00
   5.215224244100448E+00   5.280823689528404E+00   5.347248274401776E+00
   5.414508377697077E+00   5.482614508942294E+00   5.551577309859010E+00
   5.621407556025153E+00   5.692116158558777E+00   5.763714165822867E+00
   5.836212765151733E+00   5.909623284599032E+00   5.983957194707761E+00
   6.059226110302629E+00   6.135441792304814E+00   6.212616149569699E+00
   6.290761240747630E+00   6.369889276168070E+00   6.450012619747564E+00
   6.531143790921535E+00   6.613295466600551E+00   6.696480483151090E+00
   6.780711838401206E+00   6.866002693671548E+00   6.952366375831756E+00
   7.039816379382886E+00   7.128366368565926E+00   7.218030179496814E+00
   7.308821822328460E+00   7.400755483439744E+00   7.493845527652270E+00
   7.588106500474852E+00   7.683553130376241E+00   7.780200331086577E+00
   7.878063203927573E+00   7.977157040172225E+00   8.077497323434070E+00
   8.179099732086483E+00   8.281980141712557E+00   8.386154627585579E+00
   8.491639467180924E+00   8.598451142719407E+00   8.706606343742608E+00
   8.816121969720765E+00   8.927015132693214E+00   9.039303159942298E+00
   9.153003596700746E+00   9.268134208893091E+00   9.384712985911760E+00
   9.502758143427805E+00   9.622288126237272E+00   9.743321611143182E+00
   9.865877509873753E+00   9.989974972037547E+00   1.011563338811546E+01
   1.024287239249069E+01   1.037171186651655E+01   1.050217194162294E+01
   1.063427300246207E+01   1.076803569009340E+01   1.090348090520906E+01
   1.104062981139947E+01   1.117950383846024E+01   1.132012468574066E+01
   1.146251432553418E+01   1.160669500651173E+01   1.175268925719807E+01
   1.190051988949186E+01   1.205021000223021E+01   1.220178298479772E+01
   1.235526252078132E+01   1.251067259167080E+01   1.266803748060586E+01
   1.282738177617062E+01   1.298873037623539E+01   1.315210849184722E+01
   1.331754165116910E+01   1.348505570346870E+01   1.365467682315755E+01
   1.382643151388065E+01   1.400034661265789E+01   1.417644929407731E+01
   1.435476707454111E+01   1.453532781656534E+01   1.471815973313323E+01
   1.490329139210375E+01   1.509075172067530E+01   1.528057000990555E+01
   1.547277591928843E+01   1.566739948138828E+01   1.586447110653267E+01
   1.606402158756401E+01   1.626608210465087E+01   1.647068423016022E+01
   1.667785993359037E+01   1.688764158656651E+01   1.710006196789876E+01
   1.731515426870381E+01   1.753295209759132E+01   1.775348948591513E+01
   1.797680089309086E+01   1.820292121198025E+01   1.843188577434312E+01
   1.866373035635823E+01   1.889849118421313E+01   1.913620493976485E+01
   1.937690876627135E+01   1.962064027419517E+01   1.986743754708037E+01
   2.011733914750289E+01   2.037038412309625E+01   2.062661201265275E+01
   2.088606285230135E+01   2.114877718176369E+01   2.141479605068816E+01
   2.168416102506430E+01   2.195691419371741E+01   2.223309817488493E+01
   2.251275612287591E+01   2.279593173481361E+01   2.308266925746356E+01
   2.337301349414707E+01   2.366700981174178E+01   2.396470414777052E+01
   2.426614301757887E+01   2.457137352160358E+01   2.488044335273192E+01
   2.519340080375374E+01   2.551029477490756E+01   2.583117478152102E+01
   2.615609096174802E+01   2.648509408440282E+01   2.681823555689260E+01