<UPF version="2.0.1">
  <PP_INFO>
    Generated using "atomic" code by A. Dal Corso  v.7.2
    Author: ADC
    Generation date: 20Sep2023
    Pseudopotential type: USPP
    Element: Re
    Functional: PBE
    Suggested minimum cutoff for wavefunctions:  54. Ry
    Suggested minimum cutoff for charge density: 290. Ry
    The Pseudo was generated with a Fully-Relativistic Calculation
    Local Potential by smoothing AE potential with Bessel fncs, cutoff radius:   2.1000
    Pseudopotential contains additional information for spin-orbit calculations.
    Valence configuration: 
    nl pn  l   occ       Rcut    Rcut US       E pseu
    5S  1  0  2.00      1.000      1.200    -6.219502
    6S  2  0  2.00      1.000      1.200    -0.430979
    5P  2  1  2.00      1.100      1.300    -4.008364
    5P  2  1  4.00      1.100      1.300    -3.203537
    5D  3  2  4.00      1.500      1.800    -0.416959
    5D  3  2  1.00      1.500      1.800    -0.353193
    Generation configuration:
    5S  1  0  2.00      1.000      1.200    -6.219502
    6S  2  0  2.00      1.000      1.200    -0.430978
    5P  2  1  2.00      1.100      1.300    -4.008364
    5P  2  1  4.00      1.100      1.300    -3.203536
    6P  3  1  0.00      1.100      1.300    -2.000000
    6P  3  1  0.00      1.100      1.300    -2.000000
    5D  3  2  4.00      1.500      1.800    -0.416961
    5D  3  2  1.00      1.500      1.800    -0.353189
    5D  3  2  0.00      1.500      1.800     0.050000
    5D  3  2  0.00      1.500      1.800     0.050000
    Pseudization used: troullier-martins
    <PP_INPUTFILE>
@input
title='Re',
zed=75.,
rel=2,
config='[Xe] 4f14 6s2 6p0 5d5',
iswitch=3,
dft='PBE'
/
@inputp
lpaw=.false.,
pseudotype=3,
file_pseudopw='Re.rel-pbe-spn-rrkjus_psl.1.0.0.UPF',
author='ADC',
lloc=-1,
rcloc=2.1,
which_augfun='PSQ',
rmatch_augfun_nc=.true.,
nlcc=.true.,
new_core_ps=.true.,
rcore=1.2,
tm=.true.
/
6
5S  1  0  2.00  0.00  1.00  1.20  0.0
6S  2  0  2.00  0.00  1.00  1.20  0.0
5P  2  1  6.00  0.00  1.10  1.30  0.0
6P  3  1  0.00 -2.00  1.10  1.30  0.0
5D  3  2  5.00  0.00  1.50  1.80  0.0
5D  3  2  0.00  0.05  1.50  1.80  0.0
    </PP_INPUTFILE>
  </PP_INFO>
    <!-- END OF HUMAN READABLE SECTION -->
  <PP_HEADER generated="Generated using 'atomic' code by A. Dal Corso  v.7.2" author="ADC" date="20Sep2023" comment="" element="Re" pseudo_type="USPP" relativistic="full" is_ultrasoft="true" is_paw="false" is_coulomb="false" has_so="true" has_wfc="false" has_gipaw="false" paw_as_gipaw="false" core_correction="true" functional="PBE" z_valence="15.000000000000000" total_psenergy="-177.70528227267590" wfc_cutoff="53.985724884027825" rho_cutoff="289.55764446471250" l_max="2" l_max_rho="4" l_local="-1" mesh_size="1275" number_of_wfc="6" number_of_proj="10"/>
  <PP_MESH mesh="1275" dx="1.2500000000000001E-002" xmin="-7.0000000000000000" rmax="100.00000000000000" zmesh="75.000000000000000">
    <PP_R>
   1.215842620739355E-05   1.231136038225363E-05   1.246621823222110E-05
   1.262302395415005E-05   1.278180204925360E-05   1.294257732693212E-05
   1.310537490864985E-05   1.327022023186015E-05   1.343713905398014E-05
   1.360615745641540E-05   1.377730184863516E-05   1.395059897229891E-05
   1.412607590543480E-05   1.430376006667062E-05   1.448367921951810E-05
   1.466586147671091E-05   1.485033530459738E-05   1.503712952758843E-05
   1.522627333266143E-05   1.541779627392077E-05   1.561172827721566E-05
   1.580809964481617E-05   1.600694106014801E-05   1.620828359258686E-05
   1.641215870231308E-05   1.661859824522733E-05   1.682763447792819E-05
   1.703930006275233E-05   1.725362807287797E-05   1.747065199749280E-05
   1.769040574702655E-05   1.791292365844969E-05   1.813824050063858E-05
   1.836639147980823E-05   1.859741224501332E-05   1.883133889371842E-05
   1.906820797743833E-05   1.930805650744928E-05   1.955092196057204E-05
   1.979684228502782E-05   2.004585590636763E-05   2.029800173347642E-05
   2.055331916465267E-05   2.081184809376443E-05   2.107362891648289E-05
   2.133870253659419E-05   2.160711037239076E-05   2.187889436314301E-05
   2.215409697565245E-05   2.243276121088722E-05   2.271493061070099E-05
   2.300064926463656E-05   2.328996181681493E-05   2.358291347291094E-05
   2.387955000721693E-05   2.417991776979487E-05   2.448406369371876E-05
   2.479203530240801E-05   2.510388071705303E-05   2.541964866413435E-05
   2.573938848303612E-05   2.606315013375556E-05   2.639098420470929E-05
   2.672294192063785E-05   2.705907515060979E-05   2.739943641612612E-05
   2.774407889932706E-05   2.809305645130179E-05   2.844642360050277E-05
   2.880423556126606E-05   2.916654824243847E-05   2.953341825611356E-05
   2.990490292647738E-05   3.028106029876542E-05   3.066194914833248E-05
   3.104762898983618E-05   3.143816008653644E-05   3.183360345971164E-05
   3.223402089819338E-05   3.263947496802111E-05   3.305002902221811E-05
   3.346574721069065E-05   3.388669449025145E-05   3.431293663476933E-05
   3.474454024544664E-05   3.518157276122562E-05   3.562410246932601E-05
   3.607219851591502E-05   3.652593091691158E-05   3.698537056892652E-05
   3.745058926034017E-05   3.792165968251957E-05   3.839865544117657E-05
   3.888165106786890E-05   3.937072203164596E-05   3.986594475084080E-05
   4.036739660501087E-05   4.087515594702858E-05   4.138930211532412E-05
   4.190991544628241E-05   4.243707728679556E-05   4.297087000697369E-05
   4.351137701301531E-05   4.405868276023976E-05   4.461287276628363E-05
   4.517403362446282E-05   4.574225301730312E-05   4.631761973024071E-05
   4.690022366549505E-05   4.749015585611640E-05   4.808750848020974E-05
   4.869237487533791E-05   4.930484955310576E-05   4.992502821392774E-05
   5.055300776198144E-05   5.118888632034885E-05   5.183276324634840E-05
   5.248473914705978E-05   5.314491589504387E-05   5.381339664426078E-05
   5.449028584618756E-05   5.517568926613916E-05   5.586971399979439E-05
   5.657246848992987E-05   5.728406254336453E-05   5.800460734811692E-05
   5.873421549077875E-05   5.947300097410669E-05   6.022107923483555E-05
   6.097856716171564E-05   6.174558311377661E-05   6.252224693882148E-05
   6.330867999215304E-05   6.410500515553581E-05   6.491134685639684E-05
   6.572783108726735E-05   6.655458542546956E-05   6.739173905305086E-05
   6.823942277696869E-05   6.909776904952966E-05   6.996691198908512E-05
   7.084698740098768E-05   7.173813279881094E-05   7.264048742583633E-05
   7.355419227681029E-05   7.447939011997466E-05   7.541622551937478E-05
   7.636484485744780E-05   7.732539635789522E-05   7.829803010884336E-05
   7.928289808629459E-05   8.028015417787412E-05   8.128995420687518E-05
   8.231245595660668E-05   8.334781919504749E-05   8.439620569980996E-05
   8.545777928341844E-05   8.653270581890516E-05   8.762115326572817E-05
   8.872329169601565E-05   8.983929332113956E-05   9.096933251862436E-05
   9.211358585939376E-05   9.327223213536014E-05   9.444545238736167E-05
   9.563342993344931E-05   9.683635039753189E-05   9.805440173837914E-05
   9.928777427899117E-05   1.005366607363370E-04   1.018012562514662E-04
   1.030817584200009E-04   1.043783673230103E-04   1.056912855582733E-04
   1.070207182719355E-04   1.083668731905628E-04   1.097299606536004E-04
   1.111101936462375E-04   1.125077878326871E-04   1.139229615898846E-04
   1.153559360416085E-04   1.168069350930324E-04   1.182761854657101E-04
   1.197639167330015E-04   1.212703613559443E-04   1.227957547195752E-04
   1.243403351697110E-04   1.259043440501895E-04   1.274880257405801E-04
   1.290916276943692E-04   1.307154004776244E-04   1.323595978081468E-04
   1.340244765951145E-04   1.357102969792249E-04   1.374173223733433E-04
   1.391458195036601E-04   1.408960584513687E-04   1.426683126948657E-04
   1.444628591524820E-04   1.462799782257532E-04   1.481199538432307E-04
   1.499830735048489E-04   1.518696283268450E-04   1.537799130872483E-04
   1.557142262719394E-04   1.576728701212882E-04   1.596561506773816E-04
   1.616643778318413E-04   1.636978653742458E-04   1.657569310411612E-04
   1.678418965657867E-04   1.699530877282276E-04   1.720908344063983E-04
   1.742554706275664E-04   1.764473346205459E-04   1.786667688685444E-04
   1.809141201626791E-04   1.831897396561619E-04   1.854939829191683E-04
   1.878272099943965E-04   1.901897854533234E-04   1.925820784531717E-04
   1.950044627945896E-04   1.974573169800587E-04   1.999410242730362E-04
   2.024559727578393E-04   2.050025554002858E-04   2.075811701090945E-04
   2.101922197980598E-04   2.128361124490083E-04   2.155132611755450E-04
   2.182240842876057E-04   2.209690053568167E-04   2.237484532826794E-04
   2.265628623595878E-04   2.294126723446851E-04   2.322983285265802E-04
   2.352202817949222E-04   2.381789887108538E-04   2.411749115783508E-04
   2.442085185164557E-04   2.472802835324251E-04   2.503906865957921E-04
   2.535402137133634E-04   2.567293570051591E-04   2.599586147813066E-04
   2.632284916199038E-04   2.665394984458591E-04   2.698921526107252E-04
   2.732869779735368E-04   2.767245049826632E-04   2.802052707586937E-04
   2.837298191783623E-04   2.872987009595303E-04   2.909124737472370E-04
   2.945717022008326E-04   2.982769580822080E-04   3.020288203451329E-04
   3.058278752257190E-04   3.096747163340210E-04   3.135699447467881E-04
   3.175141691013850E-04   3.215080056908917E-04   3.255520785604005E-04
   3.296470196045253E-04   3.337934686661353E-04   3.379920736363326E-04
   3.422434905556858E-04   3.465483837167380E-04   3.509074257678042E-04
   3.553212978180731E-04   3.597906895440331E-04   3.643162992972342E-04
   3.688988342134077E-04   3.735390103229576E-04   3.782375526628413E-04
   3.829951953898591E-04   3.878126818953664E-04   3.926907649214305E-04
   3.976302066784495E-04   4.026317789642467E-04   4.076962632846679E-04
   4.128244509756919E-04   4.180171433270785E-04   4.232751517075727E-04
   4.285992976916809E-04   4.339904131880458E-04   4.394493405694316E-04
   4.449769328043477E-04   4.505740535903274E-04   4.562415774888804E-04
   4.619803900621470E-04   4.677913880112672E-04   4.736754793164929E-04
   4.796335833790622E-04   4.856666311648565E-04   4.917755653498668E-04
   4.979613404674883E-04   5.042249230576678E-04   5.105672918179288E-04
   5.169894377562935E-04   5.234923643461309E-04   5.300770876829509E-04
   5.367446366431714E-04   5.434960530448830E-04   5.503323918106340E-04
   5.572547211322655E-04   5.642641226378175E-04   5.713616915605358E-04
   5.785485369100050E-04   5.858257816454323E-04   5.931945628511136E-04
   6.006560319141043E-04   6.082113547041254E-04   6.158617117557350E-04
   6.236082984527864E-04   6.314523252152124E-04   6.393950176881530E-04
   6.474376169334663E-04   6.555813796236478E-04   6.638275782381859E-04
   6.721775012623917E-04   6.806324533887256E-04   6.891937557206588E-04
   6.978627459790984E-04   7.066407787114107E-04   7.155292255030685E-04
   7.245294751919665E-04   7.336429340854302E-04   7.428710261799520E-04
   7.522151933836980E-04   7.616768957418039E-04   7.712576116645131E-04
   7.809588381581808E-04   7.907820910591829E-04   8.007289052707726E-04
   8.108008350029063E-04   8.209994540150965E-04   8.313263558623128E-04
   8.417831541439783E-04   8.523714827561009E-04   8.630929961465673E-04
   8.739493695736581E-04   8.849422993678085E-04   8.960735031966634E-04
   9.073447203334692E-04   9.187577119288344E-04   9.303142612859155E-04
   9.420161741390616E-04   9.538652789359629E-04   9.658634271233527E-04
   9.780124934362952E-04   9.903143761911188E-04   1.002770997582032E-03
   1.015384303981471E-03   1.028156266244223E-03   1.041088880015376E-03
   1.054184166042142E-03   1.067444170489608E-03   1.080870965260443E-03
   1.094466648318651E-03   1.108233344017367E-03   1.122173203430805E-03
   1.136288404690358E-03   1.150581153324940E-03   1.165053682605605E-03
   1.179708253894497E-03   1.194547156998196E-03   1.209572710525501E-03
   1.224787262249719E-03   1.240193189475513E-03   1.255792899410356E-03
   1.271588829540662E-03   1.287583448012652E-03   1.303779254018001E-03
   1.320178778184351E-03   1.336784582970717E-03   1.353599263067881E-03
   1.370625445803819E-03   1.387865791554222E-03   1.405322994158191E-03
   1.422999781339150E-03   1.440898915131057E-03   1.459023192309987E-03
   1.477375444831120E-03   1.495958540271250E-03   1.514775382276850E-03
   1.533828911017766E-03   1.553122103646627E-03   1.572657974764034E-03
   1.592439576889595E-03   1.612470000938889E-03   1.632752376706426E-03
   1.653289873354684E-03   1.674085699909297E-03   1.695143105760474E-03
   1.716465381170723E-03   1.738055857788956E-03   1.759917909171070E-03
   1.782054951307073E-03   1.804470443154836E-03   1.827167887180566E-03
   1.850150829906071E-03   1.873422862462909E-03   1.896987621153516E-03
   1.920848788019377E-03   1.945010091416366E-03   1.969475306597291E-03
   1.994248256301802E-03   2.019332811353689E-03   2.044732891265713E-03
   2.070452464852040E-03   2.096495550848369E-03   2.122866218539871E-03
   2.149568588397025E-03   2.176606832719445E-03   2.203985176287821E-03
   2.231707897024034E-03   2.259779326659603E-03   2.288203851412518E-03
   2.316985912672602E-03   2.346130007695487E-03   2.375640690305313E-03
   2.405522571606278E-03   2.435780320703131E-03   2.466418665430724E-03
   2.497442393092760E-03   2.528856351209804E-03   2.560665448276723E-03
   2.592874654529649E-03   2.625489002722587E-03   2.658513588913802E-03
   2.691953573262073E-03   2.725814180832988E-03   2.760100702415370E-03
   2.794818495347971E-03   2.829972984356575E-03   2.865569662401609E-03
   2.901614091536440E-03   2.938111903776453E-03   2.975068801979064E-03
   3.012490560734812E-03   3.050383027269633E-03   3.088752122358519E-03
   3.127603841250638E-03   3.166944254606108E-03   3.206779509444562E-03
   3.247115830105611E-03   3.287959519221422E-03   3.329316958701516E-03
   3.371194610729953E-03   3.413599018775068E-03   3.456536808611888E-03
   3.500014689357432E-03   3.544039454519024E-03   3.588617983055785E-03
   3.633757240453502E-03   3.679464279812976E-03   3.725746242952099E-03
   3.772610361521774E-03   3.820063958135868E-03   3.868114447515405E-03
   3.916769337647106E-03   3.966036230956543E-03   4.015922825496031E-03
   4.066436916147457E-03   4.117586395840265E-03   4.169379256784718E-03
   4.221823591720712E-03   4.274927595182279E-03   4.328699564777996E-03
   4.383147902487523E-03   4.438281115974396E-03   4.494107819915393E-03
   4.550636737346586E-03   4.607876701026327E-03   4.665836654815405E-03
   4.724525655074517E-03   4.783952872079357E-03   4.844127591453486E-03
   4.905059215619231E-03   4.966757265266840E-03   5.029231380842094E-03
   5.092491324052655E-03   5.156546979393353E-03   5.221408355690653E-03
   5.287085587666573E-03   5.353588937522224E-03   5.420928796541324E-03
   5.489115686713850E-03   5.558160262380112E-03   5.628073311895541E-03
   5.698865759316357E-03   5.770548666106500E-03   5.843133232865994E-03
   5.916630801081065E-03   5.991052854896289E-03   6.066411022908983E-03
   6.142717079986214E-03   6.219982949104649E-03   6.298220703213529E-03
   6.377442567121121E-03   6.457660919404835E-03   6.538888294345418E-03
   6.621137383885465E-03   6.704421039612545E-03   6.788752274767324E-03
   6.874144266276858E-03   6.960610356813552E-03   7.048164056879969E-03
   7.136819046919871E-03   7.226589179455830E-03   7.317488481253688E-03
   7.409531155514289E-03   7.502731584092748E-03   7.597104329745640E-03
   7.692664138406490E-03   7.789425941489814E-03   7.887404858224206E-03
   7.986616198014744E-03   8.087075462835113E-03   8.188798349649839E-03
   8.291800752866937E-03   8.396098766821472E-03   8.501708688290317E-03
   8.608647019038561E-03   8.716930468397966E-03   8.826575955877790E-03
   8.937600613808529E-03   9.050021790018865E-03   9.163857050546297E-03
   9.279124182381894E-03   9.395841196249515E-03   9.514026329420038E-03
   9.633698048560969E-03   9.754875052621891E-03   9.877576275756240E-03
   1.000182089027976E-02   1.012762830966625E-02   1.025501819158095E-02
   1.038401044095207E-02   1.051462521308102E-02   1.064688291679170E-02
   1.078080421761937E-02   1.091641004103977E-02   1.105372157573867E-02
   1.119276027692277E-02   1.133354786967198E-02   1.147610635233411E-02
   1.162045799996211E-02   1.176662536779461E-02   1.191463129478021E-02
   1.206449890714613E-02   1.221625162201171E-02   1.236991315104738E-02
   1.252550750417968E-02   1.268305899334285E-02   1.284259223627763E-02
   1.300413216037778E-02   1.316770400658509E-02   1.333333333333333E-02
   1.350104602054179E-02   1.367086827365906E-02   1.384282662775767E-02
   1.401694795168033E-02   1.419325945223812E-02   1.437178867846176E-02
   1.455256352590603E-02   1.473561224100864E-02   1.492096342550375E-02
   1.510864604089102E-02   1.529868941296097E-02   1.549112323637711E-02
   1.568597757931588E-02   1.588328288816479E-02   1.608306999227974E-02
   1.628537010880227E-02   1.649021484753714E-02   1.669763621589154E-02
   1.690766662387627E-02   1.712033888916989E-02   1.733568624224655E-02
   1.755374233156829E-02   1.777454122884271E-02   1.799811743434672E-02
   1.822450588231728E-02   1.845374194641002E-02   1.868586144522632E-02
   1.892090064791011E-02   1.915889627981501E-02   1.939988552824268E-02
   1.964390604825354E-02   1.989099596855028E-02   2.014119389743564E-02
   2.039453892884506E-02   2.065107064845511E-02   2.091082913986892E-02
   2.117385499087925E-02   2.144018929981045E-02   2.170987368194015E-02
   2.198295027600171E-02   2.225946175076857E-02   2.253945131172122E-02
   2.282296270779820E-02   2.311004023823195E-02   2.340072875947065E-02
   2.369507369218718E-02   2.399312102837612E-02   2.429491733854013E-02
   2.460050977896668E-02   2.490994609909630E-02   2.522327464898360E-02
   2.554054438685196E-02   2.586180488674340E-02   2.618710634626465E-02
   2.651649959443056E-02   2.685003609960636E-02   2.718776797754954E-02
   2.752974799955317E-02   2.787602960069143E-02   2.822666688816900E-02
   2.858171464977546E-02   2.894122836244591E-02   2.930526420092937E-02
   2.967387904656625E-02   3.004713049617611E-02   3.042507687105739E-02
   3.080777722610006E-02   3.119529135901323E-02   3.158767981966856E-02
   3.198500391956131E-02   3.238732574139051E-02   3.279470814875934E-02
   3.320721479599776E-02   3.362491013810866E-02   3.404785944083902E-02
   3.447612879087796E-02   3.490978510618269E-02   3.534889614643477E-02
   3.579353052362763E-02   3.624375771278727E-02   3.669964806282810E-02
   3.716127280754469E-02   3.762870407674266E-02   3.810201490750888E-02
   3.858127925562348E-02   3.906657200711607E-02   3.955796898996625E-02
   4.005554698595243E-02   4.055938374264888E-02   4.106955798557375E-02
   4.158614943049060E-02   4.210923879586358E-02   4.263890781547033E-02
   4.317523925117284E-02   4.371831690584898E-02   4.426822563648735E-02
   4.482505136744574E-02   4.538888110387757E-02   4.595980294532636E-02
   4.653790609949122E-02   4.712328089616631E-02   4.771601880135441E-02
   4.831621243155921E-02   4.892395556825662E-02   4.953934317254805E-02
   5.016247139999886E-02   5.079343761566216E-02   5.143234040929297E-02
   5.207927961075273E-02   5.273435630560769E-02   5.339767285092439E-02
   5.406933289126235E-02   5.474944137486948E-02   5.543810457008014E-02
   5.613543008191946E-02   5.684152686891763E-02   5.755650526013393E-02
   5.828047697239676E-02   5.901355512775917E-02   5.975585427117419E-02
   6.050749038839343E-02   6.126858092408920E-02   6.203924480020625E-02
   6.281960243454326E-02   6.360977575956804E-02   6.440988824147045E-02
   6.522006489945342E-02   6.604043232526817E-02   6.687111870299417E-02
   6.771225382906776E-02   6.856396913256389E-02   6.942639769573133E-02
   7.029967427478787E-02   7.118393532097574E-02   7.207931900188222E-02
   7.298596522302940E-02   7.390401564973366E-02   7.483361372924206E-02
   7.577490471314598E-02   7.672803568007641E-02   7.769315555868639E-02
   7.867041515092024E-02   7.965996715557762E-02   8.066196619217267E-02
   8.167656882509315E-02   8.270393358806495E-02   8.374422100892222E-02
   8.479759363469105E-02   8.586421605698752E-02   8.694425493773483E-02
   8.803787903520580E-02   8.914525923039029E-02   9.026656855369698E-02
   9.140198221198910E-02   9.255167761596048E-02   9.371583440785734E-02
   9.489463448954663E-02   9.608826205093954E-02   9.729690359877116E-02
   9.852074798574201E-02   9.975998644002781E-02   1.010148125951580E-01
   1.022854225202724E-01   1.035720147507570E-01   1.048747903192652E-01
   1.061939527871304E-01   1.075297082761717E-01   1.088822655009020E-01
   1.102518358011396E-01   1.116386331750302E-01   1.130428743124851E-01
   1.144647786290386E-01   1.159045683001333E-01   1.173624682958348E-01
   1.188387064159832E-01   1.203335133257884E-01   1.218471225918710E-01
   1.233797707187585E-01   1.249316971858391E-01   1.265031444847803E-01
   1.280943581574202E-01   1.297055868341318E-01   1.313370822726744E-01
   1.329890993975297E-01   1.346618963397340E-01   1.363557344772135E-01
   1.380708784756226E-01   1.398075963297009E-01   1.415661594051468E-01
   1.433468424810181E-01   1.451499237926686E-01   1.469756850752214E-01
   1.488244116075915E-01   1.506963922570612E-01   1.525919195244149E-01
   1.545112895896454E-01   1.564548023582295E-01   1.584227615079919E-01
   1.604154745365539E-01   1.624332528093796E-01   1.644764116084302E-01
   1.665452701814242E-01   1.686401517917230E-01   1.707613837688406E-01
   1.729092975595884E-01   1.750842287798671E-01   1.772865172671038E-01
   1.795165071333561E-01   1.817745468190768E-01   1.840609891475613E-01
   1.863761913800753E-01   1.887205152716774E-01   1.910943271277460E-01
   1.934979978612123E-01   1.959319030505192E-01   1.983964229983047E-01
   2.008919427908239E-01   2.034188523581224E-01   2.059775465349603E-01
   2.085684251225089E-01   2.111918929508191E-01   2.138483599420757E-01
   2.165382411746515E-01   2.192619569479608E-01   2.220199328481353E-01
   2.248125998145206E-01   2.276403942070115E-01   2.305037578742355E-01
   2.334031382225905E-01   2.363389882861552E-01   2.393117667974754E-01
   2.423219382592409E-01   2.453699730168676E-01   2.484563473319869E-01
   2.515815434568651E-01   2.547460497097556E-01   2.579503605511976E-01
   2.611949766612803E-01   2.644804050178711E-01   2.678071589758356E-01
   2.711757583472484E-01   2.745867294826138E-01   2.780406053531125E-01
   2.815379256338750E-01   2.850792367883113E-01   2.886650921534943E-01
   2.922960520266196E-01   2.959726837525555E-01   2.996955618124884E-01
   3.034652679136897E-01   3.072823910804080E-01   3.111475277459030E-01
   3.150612818456433E-01   3.190242649116687E-01   3.230370961681464E-01
   3.271004026281250E-01   3.312148191915046E-01   3.353809887442453E-01
   3.395995622588146E-01   3.438711988959075E-01   3.481965661074399E-01
   3.525763397408374E-01   3.570112041446421E-01   3.615018522754388E-01
   3.660489858061347E-01   3.706533152355959E-01   3.753155599996620E-01
   3.800364485835642E-01   3.848167186357471E-01   3.896571170831326E-01
   3.945584002478264E-01   3.995213339652937E-01   4.045466937040261E-01
   4.096352646867058E-01   4.147878420129021E-01   4.200052307833062E-01
   4.252882462255267E-01   4.306377138214763E-01   4.360544694363490E-01
   4.415393594492308E-01   4.470932408853462E-01   4.527169815499674E-01
   4.584114601640163E-01   4.641775665013607E-01   4.700162015278472E-01
   4.759282775420788E-01   4.819147183179591E-01   4.879764592490405E-01
   4.941144474946746E-01   5.003296421280133E-01   5.066230142858640E-01
   5.129955473204285E-01   5.194482369529603E-01   5.259820914293407E-01
   5.325981316776258E-01   5.392973914675658E-01   5.460809175721307E-01
   5.529497699310775E-01   5.599050218165601E-01   5.669477600008371E-01
   5.740790849260795E-01   5.813001108763135E-01   5.886119661515372E-01
   5.960157932440114E-01   6.035127490167835E-01   6.111040048844468E-01
   6.187907469961730E-01   6.265741764210579E-01   6.344555093357827E-01
   6.424359772146508E-01   6.505168270220061E-01   6.586993214070692E-01
   6.669847389012376E-01   6.753743741178488E-01   6.838695379544760E-01
   6.924715577977533E-01   7.011817777307794E-01   7.100015587431426E-01
   7.189322789435676E-01   7.279753337752565E-01   7.371321362339265E-01
   7.464041170885888E-01   7.557927251051183E-01   7.652994272726165E-01
   7.749257090326398E-01   7.846730745112994E-01   7.945430467542799E-01
   8.045371679648274E-01   8.146569997447116E-01   8.249041233382385E-01
   8.352801398793189E-01   8.457866706416446E-01   8.564253572920261E-01
   8.671978621468935E-01   8.781058684320493E-01   8.891510805456695E-01
   9.003352243246153E-01   9.116600473141097E-01   9.231273190407819E-01
   9.347388312891715E-01   9.464963983816924E-01   9.584018574621209E-01
   9.704570687826632E-01   9.826639159946112E-01   9.950243064426788E-01
   1.007540171463022E+00   1.020213466685012E+00   1.033046172336813E+00
   1.046040293554789E+00   1.059197860696818E+00   1.072520929659537E+00
   1.086011582199575E+00   1.099671926258841E+00   1.113504096293884E+00
   1.127510253609413E+00   1.141692586696009E+00   1.156053311572065E+00
   1.170594672130066E+00   1.185318940487178E+00   1.200228417340291E+00
   1.215325432325499E+00   1.230612344382105E+00   1.246091542121223E+00
   1.261765444198989E+00   1.277636499694492E+00   1.293707188492446E+00
   1.309980021670668E+00   1.326457541892453E+00   1.343142323803855E+00
   1.360036974435996E+00   1.377144133612411E+00   1.394466474361523E+00
   1.412006703334320E+00   1.429767561227261E+00   1.447751823210528E+00
   1.465962299361648E+00   1.484401835104565E+00   1.503073311654258E+00
   1.521979646466921E+00   1.541123793695836E+00   1.560508744652959E+00
   1.580137528276311E+00   1.600013211603274E+00   1.620138900249800E+00
   1.640517738895687E+00   1.661152911775939E+00   1.682047643178296E+00
   1.703205197947054E+00   1.724628881993186E+00   1.746322042810915E+00
   1.768288070000755E+00   1.790530395799140E+00   1.813052495614735E+00
   1.835857888571450E+00   1.858950138058336E+00   1.882332852286360E+00
   1.906009684852187E+00   1.929984335309082E+00   1.954260549744949E+00
   1.978842121367688E+00   2.003732891097880E+00   2.028936748168928E+00
   2.054457630734785E+00   2.080299526485268E+00   2.106466473269166E+00
   2.132962559725156E+00   2.159791925920645E+00   2.186958763998693E+00
   2.214467318833015E+00   2.242321888691273E+00   2.270526825906682E+00
   2.299086537558058E+00   2.328005486158459E+00   2.357288190352433E+00
   2.386939225622089E+00   2.416963225002018E+00   2.447364879803200E+00
   2.478148940346057E+00   2.509320216702673E+00   2.540883579448400E+00
   2.572843960422888E+00   2.605206353500679E+00   2.637975815371543E+00
   2.671157466330558E+00   2.704756491078199E+00   2.738778139530445E+00
   2.773227727639075E+00   2.808110638222330E+00   2.843432321805948E+00
   2.879198297474855E+00   2.915414153735522E+00   2.952085549389162E+00
   2.989218214415964E+00   3.026817950870375E+00   3.064890633787718E+00
   3.103442212102164E+00   3.142478709576248E+00   3.182006225742132E+00
   3.222030936854624E+00   3.262559096856272E+00   3.303597038354538E+00
   3.345151173611261E+00   3.387227995544630E+00   3.429834078743666E+00
   3.472976080495557E+00   3.516660741825857E+00   3.560894888551762E+00
   3.605685432348706E+00   3.651039371830274E+00   3.696963793641786E+00
   3.743465873567594E+00   3.790552877652279E+00   3.838232163336045E+00
   3.886511180604269E+00   3.935397473151631E+00   3.984898679560807E+00
   4.035022534495998E+00   4.085776869911528E+00   4.137169616275552E+00
   4.189208803809256E+00   4.241902563741574E+00   4.295259129579687E+00
   4.349286838395577E+00   4.403994132128652E+00   4.459389558904867E+00
   4.515481774372367E+00   4.572279543053925E+00   4.629791739716468E+00
   4.688027350757717E+00   4.746995475610388E+00   4.806705328163970E+00
   4.867166238204385E+00   4.928387652871857E+00   4.990379138136962E+00
   5.053150380295407E+00   5.116711187481497E+00   5.181071491200651E+00
   5.246241347881286E+00   5.312230940446080E+00   5.379050579903135E+00
   5.446710706957074E+00   5.515221893640384E+00   5.584594844965391E+00
   5.654840400596861E+00   5.725969536545786E+00   5.797993366884381E+00
   5.870923145482652E+00   5.944770267766901E+00   6.019546272500207E+00
   6.095262843585453E+00   6.171931811890928E+00   6.249565157098893E+00
   6.328175009577506E+00   6.407773652276125E+00   6.488373522644630E+00
   6.569987214576757E+00   6.652627480377894E+00   6.736307232757727E+00
   6.821039546847789E+00   6.906837662244560E+00   6.993714985078139E+00
   7.081685090106948E+00   7.170761722838899E+00   7.260958801679059E+00
   7.352290420104517E+00   7.444770848866480E+00   7.538414538220069E+00
   7.633236120182292E+00   7.729250410818219E+00   7.826472412556118E+00
   7.924917316531577E+00   8.024600504961096E+00   8.125537553545708E+00
   8.227744233904582E+00   8.331236516039478E+00   8.436030570830054E+00
   8.542142772560545E+00   8.649589701478387E+00   8.758388146384798E+00
   8.868555107258157E+00   8.980107797910259E+00   9.093063648675940E+00
   9.207440309136725E+00   9.323255650878478E+00   9.440527770283991E+00
   9.559274991360532E+00   9.679515868602952E+00   9.801269189892986E+00
   9.924553979434760E+00   1.004938950072748E+01   1.017579525957536E+01
   1.030379100713533E+01   1.043339674300342E+01   1.056463271833949E+01
   1.069751943903172E+01   1.083207766890059E+01   1.096832843294323E+01
   1.110629302061878E+01   1.124599298917471E+01   1.138745016701535E+01
   1.153068665711256E+01   1.167572484045928E+01   1.182258737956679E+01
   1.197129722200558E+01   1.212187760399110E+01   1.227435205401441E+01
   1.242874439651851E+01   1.258507875562106E+01   1.274337955888370E+01
   1.290367154112902E+01   1.306597974830539E+01   1.323032954140035E+01