<UPF version="2.0.1">
  <PP_INFO>
    Generated using "atomic" code by A. Dal Corso  v.7.2
    Author: ADC
    Generation date: 20Sep2023
    Pseudopotential type: USPP
    Element: Ru
    Functional: PBE
    Suggested minimum cutoff for wavefunctions:  52. Ry
    Suggested minimum cutoff for charge density: 368. Ry
    The Pseudo was generated with a Fully-Relativistic Calculation
    Local Potential by smoothing AE potential with Bessel fncs, cutoff radius:   1.3000
    Pseudopotential contains additional information for spin-orbit calculations.
    Valence configuration: 
    nl pn  l   occ       Rcut    Rcut US       E pseu
    4S  1  0  2.00      1.000      1.300    -5.847714
    5S  2  0  2.00      1.000      1.300    -0.380369
    4P  2  1  2.00      0.900      1.400    -3.809319
    4P  2  1  4.00      0.900      1.400    -3.558049
    4D  3  2  4.00      1.100      1.700    -0.574796
    4D  3  2  2.00      1.100      1.700    -0.549063
    Generation configuration:
    4S  1  0  2.00      1.000      1.300    -5.847713
    5S  2  0  2.00      1.000      1.300    -0.380380
    4P  2  1  2.00      0.900      1.400    -3.809320
    4P  2  1  4.00      0.900      1.400    -3.558040
    5P  2  1  0.00      0.900      1.400    -2.500000
    5P  2  1  0.00      0.900      1.400    -2.500000
    4D  3  2  4.00      1.100      1.700    -0.574799
    4D  3  2  2.00      1.100      1.700    -0.549058
    4D  3  2  0.00      1.100      1.700     0.500000
    4D  3  2  0.00      1.100      1.700     0.500000
    Pseudization used: troullier-martins
    <PP_INPUTFILE>
@input
title='Ru',
zed=44.,
rel=2,
config='[Kr] 5s2 5p0 4d6',
iswitch=3,
dft='PBE'
/
@inputp
lpaw=.false.,
pseudotype=3,
file_pseudopw='Ru.rel-pbe-spn-rrkjus_psl.1.0.0.UPF',
author='ADC',
lloc=-1,
rcloc=1.3,
which_augfun='PSQ',
rmatch_augfun_nc=.true.,
nlcc=.true.,
new_core_ps=.true.,
rcore=1.0,
tm=.true.
/
6
4S  1  0  2.00  0.00  1.00  1.30  0.0
5S  2  0  2.00  0.00  1.00  1.30  0.0
4P  2  1  6.00  0.00  0.90  1.40  0.0
5P  2  1  0.00 -2.50  0.90  1.40  0.0
4D  3  2  6.00  0.00  1.10  1.70  0.0
4D  3  2  0.00  0.50  1.10  1.70  0.0
    </PP_INPUTFILE>
  </PP_INFO>
    <!-- END OF HUMAN READABLE SECTION -->
  <PP_HEADER generated="Generated using 'atomic' code by A. Dal Corso  v.7.2" author="ADC" date="20Sep2023" comment="" element="Ru" pseudo_type="USPP" relativistic="full" is_ultrasoft="true" is_paw="false" is_coulomb="false" has_so="true" has_wfc="false" has_gipaw="false" paw_as_gipaw="false" core_correction="true" functional="PBE" z_valence="16.000000000000000" total_psenergy="-196.36053647137626" wfc_cutoff="52.066306398772575" rho_cutoff="367.66028195154377" l_max="2" l_max_rho="4" l_local="-1" mesh_size="1233" number_of_wfc="6" number_of_proj="10"/>
  <PP_MESH mesh="1233" dx="1.2500000000000001E-002" xmin="-7.0000000000000000" rmax="100.00000000000000" zmesh="44.000000000000000">
    <PP_R>
   2.072459012623901E-05   2.098527337884141E-05   2.124923562310414E-05
   2.151651810366486E-05   2.178716258395500E-05   2.206121135272520E-05
   2.233870723065315E-05   2.261969357703435E-05   2.290421429655705E-05
   2.319231384616260E-05   2.348403724199175E-05   2.377943006641860E-05
   2.407853847517296E-05   2.438140920455220E-05   2.468808957872404E-05
   2.499862751712087E-05   2.531307154192735E-05   2.563147078566210E-05
   2.595387499885472E-05   2.628033455781949E-05   2.661090047252669E-05
   2.694562439457302E-05   2.728455862525229E-05   2.762775612372761E-05
   2.797527051530639E-05   2.832715609981931E-05   2.868346786010488E-05
   2.904426147060055E-05   2.940959330604200E-05   2.977952045027182E-05
   3.015410070515890E-05   3.053339259963015E-05   3.091745539881577E-05
   3.130634911330948E-05   3.170013450854543E-05   3.209887311429276E-05
   3.250262723426988E-05   3.291145995587945E-05   3.332543516006598E-05
   3.374461753129743E-05   3.416907256767210E-05   3.459886659115299E-05
   3.503406675793069E-05   3.547474106891664E-05   3.592095838036857E-05
   3.637278841464919E-05   3.683030177112061E-05   3.729356993717559E-05
   3.776266529940759E-05   3.823766115492139E-05   3.871863172278577E-05
   3.920565215563050E-05   3.969879855138908E-05   4.019814796518911E-05
   4.070377842139250E-05   4.121576892578671E-05   4.173419947792971E-05
   4.225915108365002E-05   4.279070576770403E-05   4.332894658659265E-05
   4.387395764153885E-05   4.442582409162880E-05   4.498463216711811E-05
   4.555046918290543E-05   4.612342355217577E-05   4.670358480021498E-05
   4.729104357839840E-05   4.788589167835532E-05   4.848822204631155E-05
   4.909812879761260E-05   4.971570723142921E-05   5.034105384564811E-05
   5.097426635195007E-05   5.161544369107743E-05   5.226468604829400E-05
   5.292209486903895E-05   5.358777287477802E-05   5.426182407905394E-05
   5.494435380373871E-05   5.563546869549053E-05   5.633527674241724E-05
   5.704388729094996E-05   5.776141106292860E-05   5.848796017290227E-05
   5.922364814564769E-05   5.996858993390731E-05   6.072290193635115E-05
   6.148670201576425E-05   6.226010951746292E-05   6.304324528794292E-05
   6.383623169376166E-05   6.463919264065835E-05   6.545225359291461E-05
   6.627554159295836E-05   6.710918528121470E-05   6.795331491620591E-05
   6.880806239490490E-05   6.967356127334416E-05   7.054994678748429E-05
   7.143735587434501E-05   7.233592719340152E-05   7.324580114825060E-05
   7.416711990854883E-05   7.510002743222687E-05   7.604466948798345E-05
   7.700119367806163E-05   7.796974946131214E-05   7.895048817654667E-05
   7.994356306618473E-05   8.094912930019840E-05   8.196734400035751E-05
   8.299836626478053E-05   8.404235719279390E-05   8.509947991010409E-05
   8.616989959428654E-05   8.725378350059463E-05   8.835130098809387E-05
   8.946262354612462E-05   9.058792482109752E-05   9.172738064362633E-05
   9.288116905600152E-05   9.404947034000992E-05   9.523246704510407E-05
   9.643034401692592E-05   9.764328842618953E-05   9.887148979792656E-05
   1.001151400411001E-04   1.013744334785909E-04   1.026495668775606E-04
   1.039407394801971E-04   1.052481530348465E-04   1.065720118275366E-04
   1.079125227138972E-04   1.092698951514815E-04   1.106443412324946E-04
   1.120360757169330E-04   1.134453160661413E-04   1.148722824767912E-04
   1.163171979152875E-04   1.177802881526074E-04   1.192617817995769E-04
   1.207619103425926E-04   1.222809081797914E-04   1.238190126576756E-04
   1.253764641081993E-04   1.269535058863205E-04   1.285503844080252E-04
   1.301673491888315E-04   1.318046528827759E-04   1.334625513218921E-04
   1.351413035561840E-04   1.368411718941036E-04   1.385624219435372E-04
   1.403053226533068E-04   1.420701463551946E-04   1.438571688064943E-04
   1.456666692330996E-04   1.474989303731338E-04   1.493542385211276E-04
   1.512328835727539E-04   1.531351590701243E-04   1.550613622476552E-04
   1.570117940785121E-04   1.589867593216366E-04   1.609865665693665E-04
   1.630115282956522E-04   1.650619609048839E-04   1.671381847813281E-04
   1.692405243391895E-04   1.713693080733017E-04   1.735248686104537E-04
   1.757075427613652E-04   1.779176715733130E-04   1.801556003834203E-04
   1.824216788726173E-04   1.847162611202775E-04   1.870397056595461E-04
   1.893923755333593E-04   1.917746383511712E-04   1.941868663463942E-04
   1.966294364345599E-04   1.991027302722143E-04   2.016071343165513E-04
   2.041430398857981E-04   2.067108432203596E-04   2.093109455447305E-04
   2.119437531301892E-04   2.146096773582775E-04   2.173091347850796E-04
   2.200425472063112E-04   2.228103417232234E-04   2.256129508093412E-04
   2.284508123780360E-04   2.313243698509516E-04   2.342340722272898E-04
   2.371803741539660E-04   2.401637359966512E-04   2.431846239117029E-04
   2.462435099190034E-04   2.493408719757156E-04   2.524771940509615E-04
   2.556529662014469E-04   2.588686846480313E-04   2.621248518532641E-04
   2.654219765998967E-04   2.687605740703777E-04   2.721411659273550E-04
   2.755642803951841E-04   2.790304523424645E-04   2.825402233656157E-04
   2.860941418735000E-04   2.896927631731152E-04   2.933366495563607E-04
   2.970263703878973E-04   3.007625021941123E-04   3.045456287532006E-04
   3.083763411863849E-04   3.122552380502760E-04   3.161829254304004E-04
   3.201600170359031E-04   3.241871342954376E-04   3.282649064542700E-04
   3.323939706725960E-04   3.365749721251000E-04   3.408085641017663E-04
   3.450954081099533E-04   3.494361739777598E-04   3.538315399586839E-04
   3.582821928376020E-04   3.627888280380823E-04   3.673521497310426E-04
   3.719728709447824E-04   3.766517136763922E-04   3.813894090045672E-04
   3.861866972038428E-04   3.910443278602587E-04   3.959630599884890E-04
   4.009436621504355E-04   4.059869125753190E-04   4.110935992812798E-04
   4.162645201985041E-04   4.215004832939065E-04   4.268023066973730E-04
   4.321708188295967E-04   4.376068585315212E-04   4.431112751954090E-04
   4.486849288975632E-04   4.543286905327143E-04   4.600434419500998E-04
   4.658300760912559E-04   4.716894971295396E-04   4.776226206114098E-04
   4.836303735994812E-04   4.897136948173812E-04   4.958735347964266E-04
   5.021108560241465E-04   5.084266330946728E-04   5.148218528610221E-04
   5.212975145892939E-04   5.278546301148085E-04   5.344942240002070E-04
   5.412173336955427E-04   5.480250097003836E-04   5.549183157279553E-04
   5.618983288713500E-04   5.689661397718216E-04   5.761228527892033E-04
   5.833695861744644E-04   5.907074722444397E-04   5.981376575587571E-04
   6.056613030989883E-04   6.132795844500565E-04   6.209936919839220E-04
   6.288048310455814E-04   6.367142221414050E-04   6.447231011298431E-04
   6.528327194145326E-04   6.610443441398290E-04   6.693592583888020E-04
   6.777787613837207E-04   6.863041686890569E-04   6.949368124170476E-04
   7.036780414358385E-04   7.125292215802475E-04   7.214917358651807E-04
   7.305669847017288E-04   7.397563861159871E-04   7.490613759706219E-04
   7.584834081892291E-04   7.680239549835127E-04   7.776845070833189E-04
   7.874665739695687E-04   7.973716841101145E-04   8.074013851985674E-04
   8.175572443961288E-04   8.278408485764599E-04   8.382538045736367E-04
   8.487977394332186E-04   8.594743006664792E-04   8.702851565078332E-04
   8.812319961755002E-04   8.923165301354504E-04   9.035404903686663E-04
   9.149056306417693E-04   9.264137267810506E-04   9.380665769499443E-04
   9.498660019299981E-04   9.618138454053709E-04   9.739119742509134E-04
   9.861622788238723E-04   9.985666732592595E-04   1.011127095768944E-03
   1.023845508944496E-03   1.036723900063850E-03   1.049764281401821E-03
   1.062968690544522E-03   1.076339190707748E-03   1.089877871059352E-03
   1.103586847045681E-03   1.117468260722127E-03   1.131524281087817E-03
   1.145757104424531E-03   1.160168954639873E-03   1.174762083614759E-03
   1.189538771555281E-03   1.204501327348996E-03   1.219652088925685E-03
   1.234993423622670E-03   1.250527728554710E-03   1.266257430988555E-03
   1.282184988722212E-03   1.298312890468984E-03   1.314643656246329E-03
   1.331179837769626E-03   1.347924018850880E-03   1.364878815802453E-03
   1.382046877845863E-03   1.399430887525733E-03   1.417033561128942E-03
   1.434857649109054E-03   1.452905936516081E-03   1.471181243431649E-03
   1.489686425409645E-03   1.508424373922401E-03   1.527398016812494E-03
   1.546610318750232E-03   1.566064281696877E-03   1.585762945373720E-03
   1.605709387737037E-03   1.625906725459028E-03   1.646358114414806E-03
   1.667066750175503E-03   1.688035868507589E-03   1.709268745878464E-03
   1.730768699968416E-03   1.752539090189016E-03   1.774583318208026E-03
   1.796904828480925E-03   1.819507108789104E-03   1.842393690784846E-03
   1.865568150543155E-03   1.889034109120513E-03   1.912795233120691E-03
   1.936855235267656E-03   1.961217874985693E-03   1.985886958986827E-03
   2.010866341865621E-03   2.036159926701471E-03   2.061771665668467E-03
   2.087705560652929E-03   2.113965663878716E-03   2.140556078540379E-03
   2.167480959444310E-03   2.194744513657929E-03   2.222351001167047E-03
   2.250304735541507E-03   2.278610084609176E-03   2.307271471138434E-03
   2.336293373529237E-03   2.365680326512878E-03   2.395436921860553E-03
   2.425567809100823E-03   2.456077696246121E-03   2.486971350528386E-03
   2.518253599143954E-03   2.549929330007812E-03   2.582003492517358E-03
   2.614481098325737E-03   2.647367222124932E-03   2.680667002438695E-03
   2.714385642425446E-03   2.748528410691288E-03   2.783100642113226E-03
   2.818107738672756E-03   2.853555170299939E-03   2.889448475728082E-03
   2.925793263359187E-03   2.962595212140266E-03   2.999860072450688E-03
   3.037593667000693E-03   3.075801891741198E-03   3.114490716785056E-03
   3.153666187339893E-03   3.193334424652686E-03   3.233501626966220E-03
   3.274174070487574E-03   3.315358110368805E-03   3.357060181699928E-03
   3.399286800514434E-03   3.442044564807424E-03   3.485340155566556E-03
   3.529180337815978E-03   3.573571961673356E-03   3.618521963420235E-03
   3.664037366585838E-03   3.710125283044509E-03   3.756792914126967E-03
   3.804047551745513E-03   3.851896579533413E-03   3.900347473998610E-03
   3.949407805691935E-03   3.999085240390035E-03   4.049387540293148E-03
   4.100322565237974E-03   4.151898273925790E-03   4.204122725166006E-03
   4.257004079135387E-03   4.310550598653076E-03   4.364770650471687E-03
   4.419672706584629E-03   4.475265345549865E-03   4.531557253830345E-03
   4.588557227151261E-03   4.646274171874411E-03   4.704717106389836E-03
   4.763895162524950E-03   4.823817586971434E-03   4.884493742730015E-03
   4.945933110573477E-03   5.008145290528046E-03   5.071140003373405E-03
   5.134927092161611E-03   5.199516523755057E-03   5.264918390383838E-03
   5.331142911222678E-03   5.398200433987685E-03   5.466101436553231E-03
   5.534856528589109E-03   5.604476453218332E-03   5.674972088695766E-03
   5.746354450107874E-03   5.818634691093866E-03   5.891824105588445E-03
   5.965934129586532E-03   6.040976342930154E-03   6.116962471117815E-03
   6.193904387136651E-03   6.271814113317573E-03   6.350703823213805E-03
   6.430585843503023E-03   6.511472655913411E-03   6.593376899173986E-03
   6.676311370989385E-03   6.760289030039562E-03   6.845322998004597E-03
   6.931426561614984E-03   7.018613174727725E-03   7.106896460428497E-03
   7.196290213160304E-03   7.286808400878884E-03   7.378465167235221E-03
   7.471274833785549E-03   7.565251902229083E-03   7.660411056673966E-03
   7.756767165931680E-03   7.854335285840329E-03   7.953130661617168E-03
   8.053168730240656E-03   8.154465122862541E-03   8.257035667250261E-03
   8.360896390260053E-03   8.466063520341205E-03   8.572553490071751E-03
   8.680382938726116E-03   8.789568714875034E-03   8.900127879018159E-03
   9.012077706249840E-03   9.125435688958336E-03   9.240219539559075E-03
   9.356447193262245E-03   9.474136810875191E-03   9.593306781640125E-03
   9.713975726107427E-03   9.836162499045170E-03   9.959886192385218E-03
   1.008516613820636E-02   1.021202191175504E-02   1.034047333450395E-02
   1.047054047724923E-02   1.060224366324656E-02   1.073560347138670E-02
   1.087064073941100E-02   1.100737656716733E-02   1.114583231990696E-02
   1.128602963162295E-02   1.142799040843048E-02   1.157173683198976E-02
   1.171729136297192E-02   1.186467674456855E-02   1.201391600604540E-02
   1.216503246634069E-02   1.231804973770880E-02   1.247299172940970E-02
   1.262988265144481E-02   1.278874701833991E-02   1.294960965297552E-02
   1.311249569046561E-02   1.327743058208491E-02   1.344444009924581E-02
   1.361355033752513E-02   1.378478772074167E-02   1.395817900508495E-02
   1.413375128329592E-02   1.431153198890023E-02   1.449154890049486E-02
   1.467383014608846E-02   1.485840420749653E-02   1.504529992479169E-02
   1.523454650080999E-02   1.542617350571397E-02   1.562021088161301E-02
   1.581668894724187E-02   1.601563840269804E-02   1.621709033423870E-02
   1.642107621913802E-02   1.662762793060549E-02   1.683677774276632E-02
   1.704855833570414E-02   1.726300280056748E-02   1.748014464474025E-02
   1.770001779707739E-02   1.792265661320629E-02   1.814809588089494E-02
   1.837637082548757E-02   1.860751711540869E-02   1.884157086773637E-02
   1.907856865384562E-02   1.931854750512269E-02   1.956154491875133E-02
   1.980759886357178E-02   2.005674778601353E-02   2.030903061610263E-02
   2.056448677354454E-02   2.082315617388359E-02   2.108507923473985E-02
   2.135029688212445E-02   2.161885055683441E-02   2.189078222092778E-02
   2.216613436428030E-02   2.244495001122459E-02   2.272727272727273E-02
   2.301314662592352E-02   2.330261637555521E-02   2.359572720640513E-02
   2.389252491763693E-02   2.419305588449680E-02   2.449736706555981E-02
   2.480550601006709E-02   2.511752086535564E-02   2.543346038438139E-02
   2.575337393333696E-02   2.607731149936528E-02   2.640532369837008E-02
   2.673746178292480E-02   2.707377765028088E-02   2.741432385047683E-02
   2.775915359454932E-02   2.810832076284739E-02   2.846187991345148E-02
   2.881988629069819E-02   2.918239583381230E-02   2.954946518564753E-02
   2.992115170153686E-02   3.029751345825462E-02   3.067860926309100E-02
   3.106449866304083E-02   3.145524195410799E-02   3.185090019072668E-02
   3.225153519530132E-02   3.265720956786649E-02   3.306798669586821E-02
   3.348393076406854E-02   3.390510676457434E-02   3.433158050699258E-02
   3.476341862871318E-02   3.520068860532121E-02   3.564345876114021E-02
   3.609179827990782E-02   3.654577721558600E-02   3.700546650330707E-02
   3.747093797045746E-02   3.794226434790098E-02   3.841951928134300E-02
   3.890277734283785E-02   3.939211404244083E-02   3.988760584000679E-02
   4.038933015713724E-02   4.089736538927748E-02   4.141179091796614E-02
   4.193268712323866E-02   4.246013539618687E-02   4.299421815167660E-02
   4.353501884122492E-02   4.408262196603989E-02   4.463711309022383E-02
   4.519857885414300E-02   4.576710698796538E-02   4.634278632536854E-02
   4.692570681742017E-02   4.751595954663312E-02   4.811363674119715E-02
   4.871883178938999E-02   4.933163925416916E-02   4.995215488794780E-02
   5.058047564755612E-02   5.121669970939111E-02   5.186092648475691E-02
   5.251325663539783E-02   5.317379208922710E-02   5.384263605625322E-02
   5.451989304470677E-02   5.520566887737020E-02   5.590007070811252E-02
   5.660320703863255E-02   5.731518773541249E-02   5.803612404688470E-02
   5.876612862081470E-02   5.950531552190231E-02   6.025380024960472E-02
   6.101169975618346E-02   6.177913246497830E-02   6.255621828891153E-02
   6.334307864922389E-02   6.413983649444771E-02   6.494661631961740E-02
   6.576354418572185E-02   6.659074773940238E-02   6.742835623289702E-02
   6.827650054423709E-02   6.913531319769695E-02   7.000492838450070E-02
   7.088548198379080E-02   7.177711158385838E-02   7.267995650364260E-02
   7.359415781449917E-02   7.451985836224258E-02   7.545720278946708E-02
   7.640633755814615E-02   7.736741097251859E-02   7.834057320226084E-02
   7.932597630595094E-02   8.032377425482894E-02   8.133412295685410E-02
   8.235718028106684E-02   8.339310608225560E-02   8.444206222593419E-02
   8.550421261363442E-02   8.657972320851505E-02   8.766876206129484E-02
   8.877149933651034E-02   8.988810733910403E-02   9.101876054134839E-02
   9.216363561010628E-02   9.332291143443662E-02   9.449676915354570E-02
   9.568539218508999E-02   9.688896625383686E-02   9.810767942068283E-02
   9.934172211203993E-02   1.005912871495895E-01   1.018565697804106E-01
   1.031377677074888E-01   1.044350811206066E-01   1.057487127276243E-01
   1.070788677861533E-01   1.084257541356273E-01   1.097895822297792E-01
   1.111705651695229E-01   1.125689187362526E-01   1.139848614255582E-01
   1.154186144813655E-01   1.168704019305066E-01   1.183404506177239E-01
   1.198289902411157E-01   1.213362533880268E-01   1.228624755713902E-01
   1.244078952665274E-01   1.259727539484096E-01   1.275572961293899E-01
   1.291617693974079E-01   1.307864244546757E-01   1.324315151568518E-01
   1.340972985527049E-01   1.357840349242800E-01   1.374919878275671E-01
   1.392214241336815E-01   1.409726140705653E-01   1.427458312652083E-01
   1.445413527864052E-01   1.463594591880469E-01   1.482004345529571E-01
   1.500645665372826E-01   1.519521464154380E-01   1.538634691256199E-01
   1.557988333158905E-01   1.577585413908417E-01   1.597428995588477E-01
   1.617522178799090E-01   1.637868103141015E-01   1.658469947706327E-01
   1.679330931575148E-01   1.700454314318656E-01   1.721843396508375E-01
   1.743501520231915E-01   1.765432069615177E-01   1.787638471351112E-01
   1.810124195235177E-01   1.832892754707472E-01   1.855947707401738E-01
   1.879292655701244E-01   1.902931247301651E-01   1.926867175780996E-01
   1.951104181176795E-01   1.975646050570455E-01   2.000496618679003E-01
   2.025659768454258E-01   2.051139431689575E-01   2.076939589634166E-01
   2.103064273615202E-01   2.129517565667713E-01   2.156303599172392E-01
   2.183426559501480E-01   2.210890684672702E-01   2.238700266011495E-01
   2.266859648821529E-01   2.295373233063649E-01   2.324245474043411E-01
   2.353480883107203E-01   2.383084028347175E-01   2.413059535315003E-01
   2.443412087744626E-01   2.474146428284125E-01   2.505267359236729E-01
   2.536779743311219E-01   2.568688504381725E-01   2.600998628257073E-01
   2.633715163459864E-01   2.666843222015276E-01   2.700387980249863E-01
   2.734354679600350E-01   2.768748627432607E-01   2.803575197870969E-01
   2.838839832637912E-01   2.874548041904368E-01   2.910705405150691E-01
   2.947317572038439E-01   2.984390263293188E-01   3.021929271598361E-01
   3.059940462500388E-01   3.098429775325174E-01   3.137403224106158E-01
   3.176866898524011E-01   3.216826964858138E-01   3.257289666950215E-01
   3.298261327179756E-01   3.339748347452032E-01   3.381757210198375E-01
   3.424294479389043E-01   3.467366801558904E-01   3.510980906845915E-01
   3.555143610042766E-01   3.599861811661689E-01   3.645142499012654E-01
   3.690992747295195E-01   3.737419720703878E-01   3.784430673547760E-01
   3.832032951383875E-01   3.880233992164968E-01   3.929041327401742E-01
   3.978462583339611E-01   4.028505482150374E-01   4.079177843138785E-01
   4.130487583964333E-01   4.182442721878425E-01   4.235051374977049E-01
   4.288321763469292E-01   4.342262210961743E-01   4.396881145759050E-01
   4.452187102180913E-01   4.508188721895530E-01   4.564894755269924E-01
   4.622314062737188E-01   4.680455616180917E-01   4.739328500337144E-01
   4.798941914213779E-01   4.859305172528032E-01   4.920427707161835E-01
   4.982319068635562E-01   5.044988927600378E-01   5.108447076349233E-01
   5.172703430346984E-01   5.237768029779682E-01   5.303651041123346E-01
   5.370362758732556E-01   5.437913606448898E-01   5.506314139229768E-01
   5.575575044797585E-01   5.645707145309738E-01   5.716721399049636E-01
   5.788628902138885E-01   5.861440890271150E-01   5.935168740467726E-01
   6.009823972855183E-01   6.085418252465490E-01   6.161963391058616E-01
   6.239471348968204E-01   6.317954236970384E-01   6.397424318176058E-01
   6.477894009947117E-01   6.559375885836599E-01   6.641882677553396E-01
   6.725427276951587E-01   6.810022738044779E-01   6.895682279045899E-01
   6.982419284432485E-01   7.070247307038104E-01   7.159180070169993E-01
   7.249231469753296E-01   7.340415576502437E-01   7.432746638119585E-01
   7.526239081520980E-01   7.620907515091129E-01   7.716766730965353E-01
   7.813831707341188E-01   7.912117610818648E-01   8.011639798770123E-01
   8.112413821739980E-01   8.214455425874303E-01   8.317780555381372E-01
   8.422405355022863E-01   8.528346172636592E-01   8.635619561690864E-01
   8.744242283870940E-01   8.854231311698186E-01   8.965603831181944E-01
   9.078377244504985E-01   9.192569172742598E-01   9.308197458615864E-01
   9.425280169279731E-01   9.543835599145911E-01   9.663882272741542E-01
   9.785438947603627E-01   9.908524617209888E-01   1.003315851394666E+00
   1.015936011211383E+00   1.028714913096790E+00   1.041654553780307E+00
   1.054756955107113E+00   1.068024164354076E+00   1.081458254549630E+00
   1.095061324797700E+00   1.108835500605692E+00   1.122782934216595E+00
   1.136905804945291E+00   1.151206319519060E+00   1.165686712422402E+00
   1.180349246246170E+00   1.195196212041101E+00   1.210229929675811E+00
   1.225452748199263E+00   1.240867046207824E+00   1.256475232216920E+00
   1.272279745037367E+00   1.288283054156452E+00   1.304487660123778E+00
   1.320896094942000E+00   1.337510922462442E+00   1.354334738785704E+00
   1.371370172667320E+00   1.388619885928486E+00   1.406086573871997E+00
   1.423772965703384E+00   1.441681824957349E+00   1.459815949929590E+00
   1.478178174114023E+00   1.496771366645539E+00   1.515598432748300E+00
   1.534662314189685E+00   1.553965989739960E+00   1.573512475637696E+00
   1.593304826061088E+00   1.613346133605158E+00   1.633639529764979E+00
   1.654188185424994E+00   1.674995311354451E+00   1.696064158709112E+00
   1.717398019539243E+00   1.739000227303998E+00   1.760874157392295E+00
   1.783023227650208E+00   1.805450898915030E+00   1.828160675556030E+00
   1.851156106022003E+00   1.874440783395753E+00   1.898018345955484E+00
   1.921892477743318E+00   1.946066909140924E+00   1.970545417452384E+00
   1.995331827494430E+00   2.020430012194053E+00   2.045843893193677E+00
   2.071577441463919E+00   2.097634677924043E+00   2.124019674070267E+00
   2.150736552611912E+00   2.177789488115611E+00   2.205182707657578E+00
   2.232920491484093E+00   2.261007173680317E+00   2.289447142847480E+00
   2.318244842788630E+00   2.347404773202974E+00   2.376931490388960E+00
   2.406829607956228E+00   2.437103797546467E+00   2.467758789563400E+00
   2.498799373911900E+00   2.530230400746417E+00   2.562056781228848E+00
   2.594283488295887E+00   2.626915557436083E+00   2.659958087476634E+00
   2.693416241380076E+00   2.727295247051035E+00   2.761600398153067E+00
   2.796337054935830E+00   2.831510645072624E+00   2.867126664508458E+00
   2.903190678318841E+00   2.939708321579295E+00   2.976685300245877E+00
   3.014127392046742E+00   3.052040447384898E+00   3.090430390252389E+00
   3.129303219155880E+00   3.168665008053981E+00   3.208521907306296E+00
   3.248880144634410E+00   3.289746026095026E+00   3.331125937065254E+00
   3.373026343240377E+00   3.415453791644113E+00   3.458414911651582E+00
   3.501916416025203E+00   3.545965101963525E+00   3.590567852163352E+00
   3.635731635895152E+00   3.681463510092008E+00   3.727770620452318E+00
   3.774660202556275E+00   3.822139582996487E+00   3.870216180522753E+00
   3.918897507201235E+00   3.968191169588283E+00   4.018104869918919E+00
   4.068646407310379E+00   4.119823678980713E+00   4.171644681482727E+00
   4.224117511953508E+00   4.277250369379557E+00   4.331051555877955E+00
   4.385529477993559E+00   4.440692648012521E+00   4.496549685292403E+00
   4.553109317608905E+00   4.610380382519657E+00   4.668371828745077E+00
   4.727092717566605E+00   4.786552224242608E+00   4.846759639441956E+00
   4.907724370695775E+00   4.969455943867367E+00   5.031964004640617E+00
   5.095258320027211E+00   5.159348779892684E+00   5.224245398501792E+00
   5.289958316083234E+00   5.356497800414060E+00   5.423874248424088E+00
   5.492098187820381E+00   5.561180278732281E+00   5.631131315377053E+00
   5.701962227746468E+00   5.773684083314711E+00   5.846308088767613E+00
   5.919845591753790E+00   5.994308082657710E+00   6.069707196395049E+00
   6.146054714230750E+00   6.223362565619786E+00   6.301642830071227E+00
   6.380907739035671E+00   6.461169677816385E+00   6.542441187504622E+00
   6.624734966939095E+00   6.708063874690279E+00   6.792440931069558E+00
   6.877879320163633E+00   6.964392391894649E+00   7.051993664106055E+00
   7.140696824674868E+00   7.230515733650410E+00   7.321464425419921E+00
   7.413557110901553E+00   7.506808179764747E+00   7.601232202678751E+00
   7.696843933589263E+00   7.793658312023736E+00   7.891690465425797E+00
   7.990955711518836E+00   8.091469560699524E+00   8.193247718461311E+00
   8.296306087848384E+00   8.400660771940665E+00   8.506328076369822E+00
   8.613324511867171E+00   8.721666796843460E+00   8.831371860001109E+00
   8.942456842979466E+00   9.054939103033091E+00   9.168836215743980E+00
   9.284165977767740E+00   9.400946409614290E+00   9.519195758463734E+00
   9.638932501017377E+00   9.760175346384862E+00   9.882943239007469E+00
   1.000725536161816E+01   1.013313113823903E+01   1.026059023721626E+01
   1.038965257429339E+01   1.052033831572317E+01   1.065266788141857E+01
   1.078666194814348E+01   1.092234145274339E+01   1.105972759541698E+01
   1.119884184302856E+01   1.133970593246232E+01   1.148234187401885E+01
   1.162677195485419E+01   1.177301874246232E+01   1.192110508820137E+01
   1.207105413086412E+01   1.222288930029358E+01   1.237663432104385E+01
   1.253231321608724E+01   1.268995031056786E+01   1.284957023560239E+01
   1.301119793212891E+01   1.317485865480378E+01   1.334057797594793E+01
   1.350838178954246E+01   1.367829631527460E+01   1.385034810263473E+01
   1.402456403506463E+01   1.420097133415820E+01   1.437959756391487E+01
   1.456047063504638E+01   1.474361880933816E+01   1.492907070406500E+01
   1.511685529646277E+01   1.530700192825612E+01   1.549954031024308E+01
   1.569450052693760E+01   1.589191304127013E+01   1.609180869934771E+01
   1.629421873527363E+01   1.649917477602776E+01   1.670670884640850E+01
   1.691685337403652E+01   1.712964119442185E+01   1.734510555609436E+01
   1.756328012579886E+01   1.778419899375583E+01   1.800789667898777E+01
   1.823440813471316E+01   1.846376875380782E+01   1.869601437433505E+01
   1.893118128514566E+01   1.916930623154781E+01   1.941042642104890E+01
   1.965457952916913E+01   1.990180370532832E+01   2.015213757880703E+01
   2.040562026478224E+01   2.066229137043937E+01   2.092219100116093E+01
   2.118535976679292E+01   2.145183878799045E+01   2.172166970264267E+01
   2.199489467237902E+01   2.227155638915691E+01   2.255169808193241E+01