<UPF version="2.0.1">
  <PP_INFO>
    Generated using "atomic" code by A. Dal Corso  v.7.2
    Author: ADC
    Generation date: 20Sep2023
    Pseudopotential type: USPP
    Element: Sc
    Functional: PBE
    Suggested minimum cutoff for wavefunctions:  50. Ry
    Suggested minimum cutoff for charge density: 402. Ry
    The Pseudo was generated with a Fully-Relativistic Calculation
    Local Potential by smoothing AE potential with Bessel fncs, cutoff radius:   1.2000
    Pseudopotential contains additional information for spin-orbit calculations.
    Valence configuration: 
    nl pn  l   occ       Rcut    Rcut US       E pseu
    3S  1  0  2.00      0.900      1.300    -4.043957
    4S  2  0  2.00      0.900      1.300    -0.307298
    3P  2  1  2.00      0.900      1.450    -2.495283
    3P  2  1  4.00      0.900      1.450    -2.457827
    3D  3  2  1.00      1.000      1.500    -0.238570
    3D  3  2  0.00      1.000      1.500    -0.236364
    Generation configuration:
    3S  1  0  2.00      0.900      1.300    -4.043952
    4S  2  0  2.00      0.900      1.300    -0.307304
    3P  2  1  2.00      0.900      1.450    -2.495285
    3P  2  1  4.00      0.900      1.450    -2.457822
    4P  3  1  0.00      0.900      1.450     7.000000
    4P  3  1  0.00      0.900      1.450     7.000000
    3D  3  2  1.00      1.000      1.500    -0.238582
    3D  3  2  0.00      1.000      1.500    -0.236360
    3D  3  2  0.00      1.000      1.500     6.000000
    3D  3  2  0.00      1.000      1.500     6.000000
    Pseudization used: troullier-martins
    <PP_INPUTFILE>
@input
title='Sc',
zed=21.,
rel=2,
config='[Ar] 4s2 4p0 3d1',
iswitch=3,
dft='PBE'
/
@inputp
lpaw=.false.,
pseudotype=3,
file_pseudopw='Sc.rel-pbe-spn-rrkjus_psl.1.0.0.UPF',
author='ADC',
lloc=-1,
rcloc=1.2,
which_augfun='PSQ',
rmatch_augfun_nc=.true.,
nlcc=.true.,
new_core_ps=.true.,
rcore=0.8,
tm=.true.
/
6
3S  1  0  2.00  0.00  0.90  1.30  0.0
4S  2  0  2.00  0.00  0.90  1.30  0.0
3P  2  1  6.00  0.00  0.90  1.45  0.0
4P  3  1  0.00  7.00  0.90  1.45  0.0
3D  3  2  1.00  0.00  1.00  1.50  0.0
3D  3  2  0.00  6.00  1.00  1.50  0.0
    </PP_INPUTFILE>
  </PP_INFO>
    <!-- END OF HUMAN READABLE SECTION -->
  <PP_HEADER generated="Generated using 'atomic' code by A. Dal Corso  v.7.2" author="ADC" date="20Sep2023" comment="" element="Sc" pseudo_type="USPP" relativistic="full" is_ultrasoft="true" is_paw="false" is_coulomb="false" has_so="true" has_wfc="false" has_gipaw="false" paw_as_gipaw="false" core_correction="true" functional="PBE" z_valence="11.000000000000000" total_psenergy="-97.558120812602226" wfc_cutoff="50.142481643006562" rho_cutoff="401.98986807422318" l_max="2" l_max_rho="4" l_local="-1" mesh_size="1173" number_of_wfc="6" number_of_proj="10"/>
  <PP_MESH mesh="1173" dx="1.2500000000000001E-002" xmin="-7.0000000000000000" rmax="100.00000000000000" zmesh="21.000000000000000">
    <PP_R>
   4.342295074069125E-05   4.396914422233439E-05   4.452220797221820E-05
   4.508222840767876E-05   4.564929303304857E-05   4.622349045332899E-05
   4.680491038803518E-05   4.739364368521482E-05   4.798978233564335E-05
   4.859341948719784E-05   4.920464945941128E-05   4.982356775821041E-05
   5.045027109083858E-05   5.108485738096652E-05   5.172742578399323E-05
   5.237807670253897E-05   5.303691180213349E-05   5.370403402710154E-05
   5.437954761664797E-05   5.506355812114561E-05   5.575617241862736E-05
   5.645749873148632E-05   5.716764664338575E-05   5.788672711638165E-05
   5.861485250826100E-05   5.935213659009759E-05   6.009869456402926E-05
   6.085464308125831E-05   6.162010026027848E-05   6.239518570533143E-05
   6.318002052509484E-05   6.397472735160604E-05   6.477943035942352E-05
   6.559425528502939E-05   6.641932944647614E-05   6.725478176328008E-05
   6.810074277656545E-05   6.895734466946170E-05   6.982472128775729E-05
   7.070300816081366E-05   7.159234252274154E-05   7.249286333384437E-05
   7.340471130233096E-05   7.432802890630153E-05   7.526296041601034E-05
   7.620965191640782E-05   7.716825132996699E-05   7.813890843979648E-05
   7.912177491304448E-05   8.011700432459720E-05   8.112475218107496E-05
   8.214517594513058E-05   8.317843506005331E-05   8.422469097468194E-05
   8.528410716863190E-05   8.635684917783882E-05   8.744308462042415E-05
   8.854298322288577E-05   8.965671684661796E-05   9.078445951476554E-05
   9.192638743941473E-05   9.308267904912700E-05   9.425351501681889E-05
   9.543907828799233E-05   9.663955410932066E-05   9.785513005759328E-05
   9.908599606902521E-05   1.003323444689350E-04   1.015943700017956E-04
   1.028722698616645E-04   1.041662437229945E-04   1.054764937718341E-04
   1.068032247374192E-04   1.081466439241622E-04   1.095069612440446E-04
   1.108843892494149E-04   1.122791431662016E-04   1.136914409275416E-04
   1.151215032078335E-04   1.165695534572182E-04   1.180358179364933E-04
   1.195205257524666E-04   1.210239088937552E-04   1.225462022670333E-04
   1.240876437337380E-04   1.256484741472343E-04   1.272289373904500E-04
   1.288292804139822E-04   1.304497532746842E-04   1.320906091747376E-04
   1.337521045012149E-04   1.354344988661413E-04   1.371380551470592E-04
   1.388630395281032E-04   1.406097215415927E-04   1.423783741101457E-04
   1.441692735893245E-04   1.459826998108164E-04   1.478189361261575E-04
   1.496782694510086E-04   1.515609903099841E-04   1.534673928820489E-04
   1.553977750464833E-04   1.573524384294277E-04   1.593316884510130E-04
   1.613358343730815E-04   1.633651893475112E-04   1.654200704651454E-04
   1.675007988053395E-04   1.696076994861300E-04   1.717411017150348E-04
   1.739013388404925E-04   1.760887484039491E-04   1.783036721925991E-04
   1.805464562927908E-04   1.828174511441030E-04   1.851170115941014E-04
   1.874454969537849E-04   1.898032710537281E-04   1.921907023009313E-04
   1.946081637363841E-04   1.970560330933541E-04   1.995346928564085E-04
   2.020445303211781E-04   2.045859376548733E-04   2.071593119575604E-04
   2.097650553242098E-04   2.124035749075239E-04   2.150752829815555E-04
   2.177805970061273E-04   2.205199396920593E-04   2.232937390672196E-04
   2.261024285434037E-04   2.289464469840565E-04   2.318262387728459E-04
   2.347422538830977E-04   2.376949479481056E-04   2.406847823323245E-04
   2.437122242034596E-04   2.467777466054631E-04   2.498818285324469E-04
   2.530249550035274E-04   2.562076171386105E-04   2.594303122351297E-04
   2.626935438457510E-04   2.659978218570524E-04   2.693436625691956E-04
   2.727315887765993E-04   2.761621298496258E-04   2.796358218172977E-04
   2.831532074510521E-04   2.867148363495504E-04   2.903212650245542E-04
   2.939730569878810E-04   2.976707828394553E-04   3.014150203564642E-04
   3.052063545836373E-04   3.090453779246613E-04   3.129326902347435E-04
   3.168688989143416E-04   3.208546190040699E-04   3.248904732808013E-04
   3.289770923549777E-04   3.331151147691434E-04   3.373051870977203E-04
   3.415479640480333E-04   3.458441085626139E-04   3.501942919227827E-04
   3.545991938535399E-04   3.590595026297750E-04   3.635759151838077E-04
   3.681491372142890E-04   3.727798832964654E-04   3.774688769938331E-04
   3.822168509711981E-04   3.870245471091529E-04   3.918927166200014E-04
   3.968221201651338E-04   4.018135279738824E-04   4.068677199638737E-04
   4.119854858628873E-04   4.171676253322585E-04   4.224149480918218E-04
   4.277282740464341E-04   4.331084334140869E-04   4.385562668556257E-04
   4.440726256061108E-04   4.496583716078196E-04   4.553143776449288E-04
   4.610415274798901E-04   4.668407159915156E-04   4.727128493148101E-04
   4.786588449825517E-04   4.846796320686604E-04   4.907761513333690E-04
   4.969493553702145E-04   5.032002087548884E-04   5.095296881959489E-04
   5.159387826874358E-04   5.224284936634042E-04   5.289998351543956E-04
   5.356538339458888E-04   5.423915297387323E-04   5.492139753116010E-04
   5.561222366854977E-04   5.631173932903152E-04   5.702005381335058E-04
   5.773727779708618E-04   5.846352334794493E-04   5.919890394327187E-04
   5.994353448778094E-04   6.069753133150985E-04   6.146101228799940E-04
   6.223409665270229E-04   6.301690522162352E-04   6.380956031019442E-04
   6.461218577238540E-04   6.542490702005783E-04   6.624785104256010E-04
   6.708114642657017E-04   6.792492337618693E-04   6.877931373327562E-04
   6.964445099806772E-04   7.052047035002095E-04   7.140750866894151E-04
   7.230570455637117E-04   7.321519835724492E-04   7.413613218181948E-04
   7.506864992787851E-04   7.601289730321725E-04   7.696902184840893E-04
   7.793717295985918E-04   7.891750191314883E-04   7.991016188667123E-04
   8.091530798556706E-04   8.193309726595896E-04   8.296368875949292E-04
   8.400724349818650E-04   8.506392453959064E-04   8.613389699226816E-04
   8.721732804159133E-04   8.831438697586612E-04   8.942524521278290E-04
   9.055007632620121E-04   9.168905607327110E-04   9.284236242189522E-04
   9.401017557853705E-04   9.519267801637824E-04   9.639005450383044E-04
   9.760249213340599E-04   9.883018035095116E-04   1.000733109852478E-03
   1.013320782779866E-03   1.026066789141180E-03   1.038973120525846E-03
   1.052041793574402E-03   1.065274850293600E-03   1.078674358375475E-03
   1.092242411520425E-03   1.105981129764361E-03   1.119892659809957E-03
   1.133979175362089E-03   1.148242877467470E-03   1.162685994858573E-03
   1.177310784301876E-03   1.192119530950483E-03   1.207114548701188E-03
   1.222298180556021E-03   1.237672798988350E-03   1.253240806313586E-03
   1.269004635064547E-03   1.284966748371547E-03   1.301129640347265E-03
   1.317495836476456E-03   1.334067894010563E-03   1.350848402367291E-03
   1.367839983535211E-03   1.385045292483451E-03   1.402467017576538E-03
   1.420107880994462E-03   1.437970639158024E-03   1.456058083159528E-03
   1.474373039198900E-03   1.492918369025280E-03   1.511696970384188E-03
   1.530711777470289E-03   1.549965761385878E-03   1.569461930605113E-03
   1.589203331444099E-03   1.609193048536884E-03   1.629434205317430E-03
   1.649929964507668E-03   1.670683528611669E-03   1.691698140416046E-03
   1.712977083496651E-03   1.734523682731630E-03   1.756341304820953E-03
   1.778433358812458E-03   1.800803296634528E-03   1.823454613635460E-03
   1.846390849129620E-03   1.869615586950467E-03   1.893132456010539E-03
   1.916945130868469E-03   1.941057332303154E-03   1.965472827895121E-03
   1.990195432615234E-03   2.015229009420777E-03   2.040577469859057E-03
   2.066244774678589E-03   2.092234934447972E-03   2.118552010182548E-03
   2.145200113978944E-03   2.172183409657591E-03   2.199506113413339E-03
   2.227172494474237E-03   2.255186875768616E-03   2.283553634600546E-03
   2.312277203333808E-03   2.341362070084457E-03   2.370812779422093E-03
   2.400633933079970E-03   2.430830190674020E-03   2.461406270430924E-03
   2.492366949925352E-03   2.523717066826467E-03   2.555461519653816E-03
   2.587605268542738E-03   2.620153336019393E-03   2.653110807785543E-03
   2.686482833513207E-03   2.720274627649300E-03   2.754491470230404E-03
   2.789138707707788E-03   2.824221753782796E-03   2.859746090252759E-03
   2.895717267867522E-03   2.932140907196773E-03   2.969022699508260E-03
   3.006368407657065E-03   3.044183866986075E-03   3.082474986237741E-03
   3.121247748477351E-03   3.160508212027888E-03   3.200262511416655E-03
   3.240516858333819E-03   3.281277542602980E-03   3.322550933163984E-03
   3.364343479068077E-03   3.406661710485582E-03   3.449512239726260E-03
   3.492901762272483E-03   3.536837057825424E-03   3.581324991364401E-03
   3.626372514219539E-03   3.671986665157939E-03   3.718174571483484E-03
   3.764943450150509E-03   3.812300608891457E-03   3.860253447358725E-03
   3.908809458280895E-03   3.957976228633455E-03   4.007761440824304E-03
   4.058172873894137E-03   4.109218404731928E-03   4.160906009305733E-03
   4.213243763908920E-03   4.266239846422129E-03   4.319902537591074E-03
   4.374240222320423E-03   4.429261390983976E-03   4.484974640751271E-03
   4.541388676930936E-03   4.598512314330898E-03   4.656354478635717E-03
   4.714924207801252E-03   4.774230653466845E-03   4.834283082385290E-03
   4.895090877870783E-03   4.956663541265079E-03   5.019010693422111E-03
   5.082142076211248E-03   5.146067554039491E-03   5.210797115392809E-03
   5.276340874396855E-03   5.342709072397321E-03   5.409912079560179E-03
   5.477960396492020E-03   5.546864655880811E-03   5.616635624157266E-03
   5.687284203177124E-03   5.758821431924604E-03   5.831258488237236E-03
   5.904606690552442E-03   5.978877499676062E-03   6.054082520573123E-03
   6.130233504181154E-03   6.207342349246271E-03   6.285421104182394E-03
   6.364481968953834E-03   6.444537296981558E-03   6.525599597073451E-03
   6.607681535378824E-03   6.690795937367532E-03   6.774955789833985E-03
   6.860174242926347E-03   6.946464612201306E-03   7.033840380704612E-03
   7.122315201077862E-03   7.211902897691747E-03   7.302617468806118E-03
   7.394473088757287E-03   7.487484110172746E-03   7.581665066213826E-03
   7.677030672846518E-03   7.773595831140877E-03   7.871375629599360E-03
   7.970385346514407E-03   8.070640452355723E-03   8.172156612187564E-03
   8.274949688116436E-03   8.379035741769595E-03   8.484431036804690E-03
   8.591152041450993E-03   8.699215431082609E-03   8.808638090824014E-03
   8.919437118188430E-03   9.031629825749302E-03   9.145233743845439E-03
   9.260266623320175E-03   9.376746438294956E-03   9.494691388977865E-03
   9.614119904507404E-03   9.735050645832100E-03   9.857502508626322E-03
   9.981494626242753E-03   1.010704637270205E-02   1.023417736572003E-02
   1.036290746977300E-02   1.049325679920162E-02   1.062524572135380E-02
   1.075889485976718E-02   1.089422509739155E-02   1.103125757985185E-02
   1.117001371875228E-02   1.131051519502182E-02   1.145278396230201E-02
   1.159684225037718E-02   1.174271256864793E-02   1.189041770964827E-02
   1.203998075260697E-02   1.219142506705381E-02   1.234477431647103E-02
   1.250005246199083E-02   1.265728376613937E-02   1.281649279662780E-02
   1.297770443019108E-02   1.314094385647492E-02   1.330623658197178E-02
   1.347360843400634E-02   1.364308556477096E-02   1.381469445541216E-02
   1.398846192016824E-02   1.416441511055908E-02   1.434258151962868E-02
   1.452298898624092E-02   1.470566569942952E-02   1.489064020280257E-02
   1.507794139900254E-02   1.526759855422242E-02   1.545964130277856E-02
   1.565409965174115E-02   1.585100398562284E-02   1.605038507112640E-02
   1.625227406195209E-02   1.645670250366545E-02   1.666370233862645E-02
   1.687330591098042E-02   1.708554597171199E-02   1.730045568376245E-02
   1.751806862721154E-02   1.773841880452443E-02   1.796154064586462E-02
   1.818746901447377E-02   1.841623921211912E-02   1.864788698460948E-02
   1.888244852738062E-02   1.911996049115080E-02   1.936045998764759E-02
   1.960398459540661E-02   1.985057236564326E-02   2.010026182819836E-02
   2.035309199755842E-02   2.060910237895179E-02   2.086833297452141E-02
   2.113082428957523E-02   2.139661733891532E-02   2.166575365324637E-02
   2.193827528566505E-02   2.221422481823089E-02   2.249364536861975E-02
   2.277658059686115E-02   2.306307471216013E-02   2.335317247980507E-02
   2.364691922816237E-02   2.394436085575909E-02   2.424554383845473E-02
   2.455051523670306E-02   2.485932270290554E-02   2.517201448885703E-02
   2.548863945328525E-02   2.580924706948511E-02   2.613388743304889E-02
   2.646261126969389E-02   2.679546994318839E-02   2.713251546337729E-02
   2.747380049430889E-02   2.781937836246362E-02   2.816930306508645E-02
   2.852362927862408E-02   2.888241236726826E-02   2.924570839160657E-02
   2.961357411738192E-02   2.998606702436240E-02   3.036324531532256E-02
   3.074516792513772E-02   3.113189452999273E-02   3.152348555670639E-02
   3.192000219217331E-02   3.232150639292451E-02   3.272806089480820E-02
   3.313972922279248E-02   3.355657570089113E-02   3.397866546221442E-02
   3.440606445914632E-02   3.483883947364961E-02   3.527705812770086E-02
   3.572078889385629E-02   3.617010110595090E-02   3.662506496993195E-02
   3.708575157482880E-02   3.755223290386080E-02   3.802458184568464E-02
   3.850287220578347E-02   3.898717871799916E-02   3.947757705620954E-02
   3.997414384615273E-02   4.047695667739993E-02   4.098609411547897E-02
   4.150163571415041E-02   4.202366202783788E-02   4.255225462421504E-02
   4.308749609695047E-02   4.362947007861324E-02   4.417826125374064E-02
   4.473395537207028E-02   4.529663926193877E-02   4.586640084384867E-02
   4.644332914420634E-02   4.702751430923248E-02   4.761904761904762E-02
   4.821802150193498E-02   4.882452954878234E-02   4.943866652770598E-02
   5.006052839885832E-02   5.069021232942187E-02   5.132781670879199E-02
   5.197344116395010E-02   5.262718657503086E-02   5.328915509108482E-02
   5.395945014603935E-02   5.463817647486059E-02   5.532544012991826E-02
   5.602134849755672E-02   5.672601031487424E-02   5.743953568671337E-02
   5.816203610286524E-02   5.889362445548977E-02   5.963441505675548E-02
   6.038452365670097E-02   6.114406746132102E-02   6.191316515088054E-02
   6.269193689845819E-02   6.348050438872398E-02   6.427899083695257E-02
   6.508752100827601E-02   6.590622123717865E-02   6.673521944723684E-02
   6.757464517110752E-02   6.842462957076788E-02   6.928530545800958E-02
   7.015680731519122E-02   7.103927131625098E-02   7.193283534798445E-02
   7.283763903158952E-02   7.375382374448253E-02   7.468153264238901E-02
   7.562091068171162E-02   7.657210464218019E-02   7.753526314978625E-02
   7.851053670000610E-02   7.949807768131634E-02   8.049804039900438E-02
   8.151058109927931E-02   8.253585799368554E-02   8.357403128382374E-02
   8.462526318638279E-02   8.568971795848615E-02   8.676756192335762E-02
   8.785896349630958E-02   8.896409321105821E-02   9.008312374637001E-02
   9.121622995304270E-02   9.236358888122644E-02   9.352537980808802E-02
   9.470178426582343E-02   9.589298607002272E-02   9.709917134839123E-02
   9.832052856983274E-02   9.955724857389796E-02   1.008095246006036E-01
   1.020775523206267E-01   1.033615298658782E-01   1.046616578604621E-01
   1.059781394520223E-01   1.073111803434861E-01   1.086609888252050E-01
   1.100277758075002E-01   1.114117548536187E-01   1.128131422131020E-01
   1.142321568555761E-01   1.156690205049661E-01   1.171239576741405E-01
   1.185971956999920E-01   1.200889647789595E-01   1.215994980029965E-01
   1.231290313959927E-01   1.246778039506525E-01   1.262460576658385E-01
   1.278340375843844E-01   1.294419918313831E-01   1.310701716529575E-01
   1.327188314555167E-01   1.343882288455095E-01   1.360786246696745E-01
   1.377902830557982E-01   1.395234714539859E-01   1.412784606784509E-01
   1.430555249498301E-01   1.448549419380317E-01   1.466769928056205E-01
   1.485219622517522E-01   1.503901385566557E-01   1.522818136266798E-01
   1.541972830399030E-01   1.561368460923178E-01   1.581008058445977E-01
   1.600894691694491E-01   1.621031467995628E-01   1.641421533761656E-01
   1.662068074981829E-01   1.682974317720226E-01   1.704143528619800E-01
   1.725579015412829E-01   1.747284127437737E-01   1.769262256162430E-01
   1.791516835714245E-01   1.814051343416506E-01   1.836869300331892E-01
   1.859974271812598E-01   1.883369868057418E-01   1.907059744675871E-01
   1.931047603259370E-01   1.955337191959624E-01   1.979932306074291E-01
   2.004836788639981E-01   2.030054531032773E-01   2.055589473576212E-01
   2.081445606157027E-01   2.107626968848542E-01   2.134137652541936E-01
   2.160981799585480E-01   2.188163604431757E-01   2.215687314293080E-01
   2.243557229805117E-01   2.271777705698858E-01   2.300353151481087E-01
   2.329288032123336E-01   2.358586868759578E-01   2.388254239392649E-01
   2.418294779609563E-01   2.448713183305853E-01   2.479514203418976E-01
   2.510702652670995E-01   2.542283404320562E-01   2.574261392924365E-01
   2.606641615108193E-01   2.639429130347630E-01   2.672629061758645E-01
   2.706246596898070E-01   2.740286988574158E-01   2.774755555667371E-01
   2.809657683961437E-01   2.844998826984915E-01   2.880784506863310E-01
   2.917020315181899E-01   2.953711913859463E-01   2.990865036032936E-01
   3.028485486953252E-01   3.066579144892411E-01   3.105151962061958E-01
   3.144209965543064E-01   3.183759258228225E-01   3.223806019774892E-01
   3.264356507571040E-01   3.305417057712874E-01   3.346994085994905E-01
   3.389094088912379E-01   3.431723644676412E-01   3.474889414241827E-01
   3.518598142347929E-01   3.562856658572422E-01   3.607671878398500E-01
   3.653050804295442E-01   3.699000526812751E-01   3.745528225688043E-01
   3.792641170968943E-01   3.840346724148988E-01   3.888652339317927E-01
   3.937565564326416E-01   3.987094041965364E-01   4.037245511160182E-01
   4.088027808179951E-01   4.139448867861906E-01   4.191516724851244E-01
   4.244239514856541E-01   4.297625475921015E-01   4.351682949709680E-01
   4.406420382812805E-01   4.461846328065683E-01   4.517969445885012E-01
   4.574798505622149E-01   4.632342386933280E-01   4.690610081166943E-01
   4.749610692768917E-01   4.809353440704787E-01   4.869847659900481E-01
   4.931102802700807E-01   4.993128440346462E-01   5.055934264469529E-01
   5.119530088607788E-01   5.183925849738166E-01   5.249131609829336E-01
   5.315157557413983E-01   5.382014009180757E-01   5.449711411586249E-01
   5.518260342487334E-01   5.587671512793911E-01   5.657955768142570E-01
   5.729124090591209E-01   5.801187600334987E-01   5.874157557443936E-01
   5.948045363622292E-01   6.022862563990106E-01   6.098620848887163E-01
   6.175332055699587E-01   6.253008170709538E-01   6.331661330967995E-01
   6.411303826191290E-01   6.491948100681316E-01   6.573606755270045E-01
   6.656292549288404E-01   6.740018402559909E-01   6.824797397419500E-01
   6.910642780757583E-01   6.997567966089973E-01   7.085586535653737E-01
   7.174712242529425E-01   7.264959012790085E-01   7.356340947677156E-01
   7.448872325803891E-01   7.542567605386397E-01   7.637441426502702E-01
   7.733508613380409E-01   7.830784176712887E-01   7.929283316004830E-01
   8.029021421947166E-01   8.130014078821839E-01   8.232277066936983E-01
   8.335826365092519E-01   8.440678153076973E-01   8.546848814195551E-01
   8.654354937830032E-01   8.763213322030987E-01   8.873440976142388E-01
   8.985055123459469E-01   9.098073203919842E-01   9.212512876828485E-01
   9.328392023617152E-01   9.445728750638254E-01   9.564541391994128E-01
   9.684848512401727E-01   9.806668910093350E-01   9.930021619754017E-01
   1.005492591549554E+00   1.018140131386826E+00   1.030946757691051E+00
   1.043914471523641E+00   1.057045299116270E+00   1.070341292187458E+00
   1.083804528263178E+00   1.097437111001457E+00   1.111241170521082E+00
   1.125218863734440E+00   1.139372374684531E+00   1.153703914886237E+00
   1.168215723671875E+00   1.182910068541088E+00   1.197789245515162E+00
   1.212855579495767E+00   1.228111424628241E+00   1.243559164669428E+00
   1.259201213360133E+00   1.275040014802293E+00   1.291078043840853E+00
   1.307317806450481E+00   1.323761840127128E+00   1.340412714284507E+00
   1.357273030655586E+00   1.374345423699097E+00   1.391632561011188E+00
   1.409137143742237E+00   1.426861907018906E+00   1.444809620371522E+00
   1.462983088166806E+00   1.481385150046079E+00   1.500018681368951E+00
   1.518886593662595E+00   1.537991835076701E+00   1.557337390844103E+00
   1.576926283747253E+00   1.596761574590522E+00   1.616846362678455E+00
   1.637183786300058E+00   1.657777023219145E+00   1.678629291170883E+00
   1.699743848364567E+00   1.721123993992711E+00   1.742773068746573E+00
   1.764694455338124E+00   1.786891579028619E+00   1.809367908163800E+00
   1.832126954715816E+00   1.855172274832001E+00   1.878507469390503E+00
   1.902136184562949E+00   1.926062112384163E+00   1.950288991329038E+00
   1.974820606896705E+00   1.999660792202000E+00   2.024813428574418E+00
   2.050282446164569E+00   2.076071824558262E+00   2.102185593398347E+00
   2.128627833014327E+00   2.155402675059941E+00   2.182514303158739E+00
   2.209966953557761E+00   2.237764915789493E+00   2.265912533342081E+00
   2.294414204338039E+00   2.323274382221451E+00   2.352497576453819E+00
   2.382088353218705E+00   2.412051336135175E+00   2.442391206980272E+00
   2.473112706420547E+00   2.504220634752783E+00   2.535719852654081E+00
   2.567615281941312E+00   2.599911906340202E+00   2.632614772264023E+00
   2.665728989602103E+00   2.699259732518279E+00   2.733212240259345E+00
   2.767591817973714E+00   2.802403837540355E+00   2.837653738408142E+00
   2.873347028445812E+00   2.909489284802542E+00   2.946086154779423E+00
   2.983143356711853E+00   3.020666680863016E+00   3.058661990328664E+00
   3.097135221953191E+00   3.136092387257319E+00   3.175539573377391E+00
   3.215482944016483E+00   3.255928740407534E+00   3.296883282288507E+00
   3.338352968889898E+00   3.380344279934616E+00   3.422863776650432E+00
   3.465918102795226E+00   3.509513985695040E+00   3.553658237295282E+00
   3.598357755225080E+00   3.643619523875042E+00   3.689450615488618E+00
   3.735858191267103E+00   3.782849502488635E+00   3.830431891641205E+00
   3.878612793569912E+00   3.927399736638720E+00   3.976800343906727E+00
   4.026822334319333E+00   4.077473523914317E+00   4.128761827043091E+00
   4.180695257607377E+00   4.233281930311349E+00   4.286530061929610E+00
   4.340447972591069E+00   4.395044087078947E+00   4.450326936147226E+00
   4.506305157853530E+00   4.562987498908899E+00   4.620382816044450E+00
   4.678500077395241E+00   4.737348363901616E+00   4.796936870728054E+00
   4.857274908699985E+00   4.918371905758612E+00   4.980237408434011E+00
   5.042881083336859E+00   5.106312718668788E+00   5.170542225751886E+00
   5.235579640577315E+00   5.301435125373446E+00   5.368118970193778E+00
   5.435641594524716E+00   5.504013548913698E+00   5.573245516617710E+00
   5.643348315272540E+00   5.714332898583121E+00   5.786210358034999E+00
   5.858991924627454E+00   5.932688970628355E+00   6.007313011351056E+00
   6.082875706953764E+00   6.159388864261380E+00   6.236864438610409E+00
   6.315314535716984E+00   6.394751413568359E+00   6.475187484338339E+00
   6.556635316326606E+00   6.639107635922627E+00   6.722617329594143E+00
   6.807177445900668E+00   6.892801197532435E+00   6.979501963374818E+00
   7.067293290598886E+00   7.156188896778143E+00   7.246202672031886E+00
   7.337348681195662E+00   7.429641166018815E+00   7.523094547389879E+00
   7.617723427589842E+00   7.713542592573731E+00   7.810567014281046E+00
   7.908811852975053E+00   8.008292459611688E+00   8.109024378238150E+00
   8.211023348421636E+00   8.314305307708784E+00   8.418886394115830E+00
   8.524782948650317E+00   8.632011517864351E+00   8.740588856439999E+00
   8.850531929807349E+00   8.961857916795262E+00   9.074584212315713E+00
   9.188728430081742E+00   9.304308405359569E+00   9.421342197755511E+00
   9.539848094037707E+00   9.659844610993567E+00   9.781350498323016E+00
   9.904384741568126E+00   1.002896656507975E+01   1.015511543502124E+01
   1.028285106241020E+01   1.041219340619829E+01   1.054316267638987E+01
   1.067577933719987E+01   1.081006411025134E+01   1.094603797781328E+01
   1.108372218607916E+01   1.122313824848660E+01   1.136430794907904E+01
   1.150725334590937E+01   1.165199677448669E+01   1.179856085126621E+01
   1.194696847718308E+01   1.209724284123082E+01   1.224940742408452E+01
   1.240348600176985E+01   1.255950264937806E+01   1.271748174482772E+01
   1.287744797267395E+01   1.303942632796526E+01   1.320344212014924E+01
   1.336952097702712E+01   1.353768884875814E+01   1.370797201191445E+01
   1.388039707358667E+01   1.405499097554154E+01   1.423178099843146E+01
   1.441079476605714E+01   1.459206024968403E+01   1.477560577241269E+01
   1.496146001360449E+01   1.514965201336276E+01   1.534021117707031E+01
   1.553316727998421E+01   1.572855047188804E+01   1.592639128180310E+01
   1.612672062275846E+01   1.632956979662116E+01   1.653497049898738E+01
   1.674295482413471E+01   1.695355527003710E+01   1.716680474344275E+01
   1.738273656501566E+01   1.760138447454235E+01   1.782278263620343E+01
   1.804696564391217E+01   1.827396852671963E+01   1.850382675428804E+01
   1.873657624243317E+01   1.897225335873600E+01   1.921089492822548E+01
   1.945253823913241E+01   1.969722104871566E+01   1.994498158916211E+01
   2.019585857356022E+01   2.044989120194924E+01   2.070711916744422E+01
   2.096758266243804E+01   2.123132238488179E+01   2.149837954464360E+01
   2.176879586994805E+01   2.204261361389617E+01   2.231987556106748E+01
   2.260062503420538E+01   2.288490590098616E+01   2.317276258087368E+01
   2.346424005205985E+01   2.375938385849248E+01   2.405824011699188E+01
   2.436085552445639E+01   2.466727736515914E+01   2.497755351813621E+01
   2.529173246466767E+01   2.560986329585321E+01   2.593199572028236E+01
   2.625818007180185E+01   2.658846731738029E+01   2.692290906507167E+01
   2.726155757207961E+01   2.760446575292221E+01   2.795168718770042E+01
   2.830327613046991E+01   2.865928751771820E+01   2.901977697694896E+01
   2.938480083537351E+01   2.975441612871242E+01   3.012868061010734E+01
   3.050765275914480E+01   3.089139179099424E+01   3.127995766565999E+01
   3.167341109735056E+01   3.207181356396521E+01   3.247522731669979E+01
   3.288371538977402E+01   3.329734161028028E+01   3.371617060815711E+01
   3.414026782628761E+01   3.456969953072483E+01   3.500453282104638E+01
   3.544483564083843E+01   3.589067678831244E+01   3.634212592705484E+01
   3.679925359691190E+01   3.726213122501222E+01   3.773083113692677E+01
   3.820542656797043E+01   3.868599167464495E+01   3.917260154622583E+01
   3.966533221649566E+01   4.016426067562398E+01   4.066946488219769E+01
   4.118102377540199E+01   4.169901728735457E+01   4.222352635559567E+01
   4.275463293573421E+01   4.329242001425392E+01   4.383697162148005E+01
   4.438837284470897E+01   4.494670984150380E+01   4.551206985315608E+01
   4.608454121831793E+01   4.666421338680497E+01   4.725117693357268E+01