<UPF version="2.0.1">
  <PP_INFO>
    Generated using "atomic" code by A. Dal Corso  v.7.2
    Author: ADC
    Generation date: 20Sep2023
    Pseudopotential type: USPP
    Element: Sr
    Functional: PBE
    Suggested minimum cutoff for wavefunctions:  39. Ry
    Suggested minimum cutoff for charge density: 263. Ry
    The Pseudo was generated with a Fully-Relativistic Calculation
    Local Potential by smoothing AE potential with Bessel fncs, cutoff radius:   1.9000
    Pseudopotential contains additional information for spin-orbit calculations.
    Valence configuration: 
    nl pn  l   occ       Rcut    Rcut US       E pseu
    4S  1  0  2.00      1.300      1.500    -3.004877
    5S  2  0  2.00      1.300      1.500    -0.259128
    4P  2  1  2.00      1.400      1.600    -1.734792
    4P  2  1  4.00      1.400      1.600    -1.649533
    5P  3  1  0.00      1.400      1.600    -0.097502
    5P  3  1  0.00      1.400      1.600    -0.092939
    Generation configuration:
    4S  1  0  2.00      1.300      1.500    -3.004877
    5S  2  0  2.00      1.300      1.500    -0.259131
    4P  2  1  2.00      1.400      1.600    -1.734791
    4P  2  1  4.00      1.400      1.600    -1.649527
    5P  3  1  0.00      1.400      1.600    -0.097504
    5P  3  1  0.00      1.400      1.600    -0.092940
    4D  3  2  0.00      1.200      1.700     0.050000
    4D  3  2  0.00      1.200      1.700     0.050000
    4D  3  2  0.00      1.200      1.700     1.000000
    4D  3  2  0.00      1.200      1.700     1.000000
    Pseudization used: troullier-martins
    <PP_INPUTFILE>
@input
title='Sr',
zed=38.,
rel=2,
config='[Kr] 5s2 5p0 4d-1',
iswitch=3,
dft='PBE'
/
@inputp
lpaw=.false.,
pseudotype=3,
file_pseudopw='Sr.rel-pbe-spn-rrkjus_psl.1.0.0.UPF',
author='ADC',
lloc=-1,
rcloc=1.9,
which_augfun='PSQ',
rmatch_augfun_nc=.true.,
nlcc=.true.,
new_core_ps=.true.,
rcore=1.2,
tm=.true.
/
6
4S  1  0  2.00  0.00  1.30  1.50  0.0
5S  2  0  2.00  0.00  1.30  1.50  0.0
4P  2  1  6.00  0.00  1.40  1.60  0.0
5P  3  1  0.00  0.00  1.40  1.60  0.0
4D  3  2  0.00  0.05  1.20  1.70  0.0
4D  3  2  0.00  1.00  1.20  1.70  0.0
    </PP_INPUTFILE>
  </PP_INFO>
    <!-- END OF HUMAN READABLE SECTION -->
  <PP_HEADER generated="Generated using 'atomic' code by A. Dal Corso  v.7.2" author="ADC" date="20Sep2023" comment="" element="Sr" pseudo_type="USPP" relativistic="full" is_ultrasoft="true" is_paw="false" is_coulomb="false" has_so="true" has_wfc="false" has_gipaw="false" paw_as_gipaw="false" core_correction="true" functional="PBE" z_valence="10.000000000000000" total_psenergy="-70.089369696810763" wfc_cutoff="39.196788093705841" rho_cutoff="262.53520810477579" l_max="2" l_max_rho="4" l_local="-1" mesh_size="1221" number_of_wfc="6" number_of_proj="10"/>
  <PP_MESH mesh="1221" dx="1.2500000000000001E-002" xmin="-7.0000000000000000" rmax="100.00000000000000" zmesh="38.000000000000000">
    <PP_R>
   2.399689383038201E-05   2.429873759655322E-05   2.460437808991006E-05
   2.491386306740142E-05   2.522724088668473E-05   2.554456051368181E-05
   2.586587153022996E-05   2.619122414182925E-05   2.652066918548712E-05
   2.685425813766196E-05   2.719204312230624E-05   2.753407691901101E-05
   2.788041297125290E-05   2.823110539474465E-05   2.858620898589100E-05
   2.894577923035048E-05   2.930987231170535E-05   2.967854512024033E-05
   3.005185526183177E-05   3.042986106694889E-05   3.081262159976775E-05
   3.120019666740033E-05   3.159264682923949E-05   3.199003340642144E-05
   3.239241849140739E-05   3.279986495768552E-05   3.321243646959512E-05
   3.363019749227433E-05   3.405321330173284E-05   3.448154999505158E-05
   3.491527450071030E-05   3.535445458904544E-05   3.579915888283931E-05
   3.624945686804255E-05   3.670541890463155E-05   3.716711623760215E-05
   3.763462100810196E-05   3.810800626470252E-05   3.858734597481324E-05
   3.907271503623913E-05   3.956418928888349E-05   4.006184552659820E-05
   4.056576150918290E-05   4.107601597453506E-05   4.159268865095308E-05
   4.211586026959380E-05   4.264561257708702E-05   4.318202834830858E-05
   4.372519139931405E-05   4.427518660043530E-05   4.483209988954142E-05
   4.539601828546690E-05   4.596702990160841E-05   4.654522395969265E-05
   4.713069080371763E-05   4.772352191406882E-05   4.832380992181334E-05
   4.893164862317371E-05   4.954713299418362E-05   5.017035920552833E-05
   5.080142463757130E-05   5.144042789557019E-05   5.208746882508413E-05
   5.274264852757471E-05   5.340606937620353E-05   5.407783503182787E-05
   5.475805045919814E-05   5.544682194335879E-05   5.614425710625548E-05
   5.685046492355143E-05   5.756555574165487E-05   5.828964129496097E-05
   5.902283472331061E-05   5.976525058966861E-05   6.051700489802463E-05
   6.127821511151879E-05   6.204900017079560E-05   6.282948051258878E-05
   6.361977808853956E-05   6.442001638425219E-05   6.523032043858838E-05
   6.605081686320523E-05   6.688163386233838E-05   6.772290125283422E-05
   6.857475048443417E-05   6.943731466031372E-05   7.031072855788028E-05
   7.119512864983228E-05   7.209065312548338E-05   7.299744191235497E-05
   7.391563669803980E-05   7.484538095234125E-05   7.578681994969061E-05
   7.674010079184652E-05   7.770537243088018E-05   7.868278569244896E-05
   7.967249329936356E-05   8.067464989545113E-05   8.168941206971865E-05
   8.271693838082053E-05   8.375738938183334E-05   8.481092764534279E-05
   8.587771778884601E-05   8.695792650047321E-05   8.805172256503347E-05
   8.915927689038714E-05   9.028076253415090E-05   9.141635473073825E-05
   9.256623091874022E-05   9.373057076865078E-05   9.490955621094027E-05
   9.610337146448272E-05   9.731220306534032E-05   9.853623989591001E-05
   9.977567321443705E-05   1.010306966848990E-04   1.023015064072666E-04
   1.035883009481443E-04   1.048912813717971E-04   1.062106512715673E-04
   1.075466168016860E-04   1.088993867094852E-04   1.102691723680152E-04
   1.116561878090721E-04   1.130606497566405E-04   1.144827776607571E-04
   1.159227937318002E-04   1.173809229752106E-04   1.188573932266491E-04
   1.203524351875967E-04   1.218662824614012E-04   1.233991715897792E-04
   1.249513420897757E-04   1.265230364911891E-04   1.281145003744674E-04
   1.297259824090803E-04   1.313577343923741E-04   1.330100112889161E-04
   1.346830712703329E-04   1.363771757556506E-04   1.380925894521417E-04
   1.398295803966862E-04   1.415884199976532E-04   1.433693830773086E-04
   1.451727479147571E-04   1.469987962894237E-04   1.488478135250818E-04
   1.507200885344364E-04   1.526159138642669E-04   1.545355857411382E-04
   1.564794041176867E-04   1.584476727194884E-04   1.604406990925168E-04
   1.624587946511974E-04   1.645022747270674E-04   1.665714586180460E-04
   1.686666696383259E-04   1.707882351688918E-04   1.729364867086740E-04
   1.751117599263467E-04   1.773143947127754E-04   1.795447352341270E-04
   1.818031299856456E-04   1.840899318461055E-04   1.864054981329507E-04
   1.887501906581237E-04   1.911243757846024E-04   1.935284244836431E-04
   1.959627123927458E-04   1.984276198743494E-04   2.009235320752621E-04
   2.034508389868440E-04   2.060099355059414E-04   2.086012214965919E-04
   2.112251018525042E-04   2.138819865603213E-04   2.165722907636850E-04
   2.192964348281002E-04   2.220548444066192E-04   2.248479505063512E-04
   2.276761895558062E-04   2.305400034730902E-04   2.334398397349542E-04
   2.363761514467136E-04   2.393493974130480E-04   2.423600422096879E-04
   2.454085562560086E-04   2.484954158885319E-04   2.516211034353554E-04
   2.547861072915182E-04   2.579909219953112E-04   2.612360483055529E-04
   2.645219932798312E-04   2.678492703537334E-04   2.712183994210723E-04
   2.746299069151186E-04   2.780843258908593E-04   2.815821961082876E-04
   2.851240641167408E-04   2.887104833403023E-04   2.923420141642712E-04
   2.960192240227280E-04   2.997426874871942E-04   3.035129863564111E-04
   3.073307097472487E-04   3.111964541867531E-04   3.151108237053585E-04
   3.190744299312657E-04   3.230878921860115E-04   3.271518375812393E-04
   3.312669011166842E-04   3.354337257793965E-04   3.396529626442072E-04
   3.439252709754600E-04   3.482513183300248E-04   3.526317806616007E-04
   3.570673424263403E-04   3.615586966897933E-04   3.661065452352005E-04
   3.707115986731510E-04   3.753745765526120E-04   3.800962074733652E-04
   3.848772291998480E-04   3.897183887764316E-04   3.946204426441504E-04
   3.995841567588933E-04   4.046103067110904E-04   4.096996778468971E-04
   4.148530653909076E-04   4.200712745704111E-04   4.253551207412072E-04
   4.307054295150113E-04   4.361230368884541E-04   4.416087893737094E-04
   4.471635441307653E-04   4.527881691013522E-04   4.584835431445662E-04
   4.642505561741885E-04   4.700901092977377E-04   4.760031149572714E-04
   4.819904970719521E-04   4.880531911824180E-04   4.941921445969582E-04
   5.004083165395330E-04   5.067026782996561E-04   5.130762133841578E-04
   5.195299176708627E-04   5.260647995641955E-04   5.326818801527471E-04
   5.393821933688226E-04   5.461667861499933E-04   5.530367186026850E-04
   5.599930641678204E-04   5.670369097885466E-04   5.741693560800730E-04
   5.813915175016432E-04   5.887045225306737E-04   5.961095138390782E-04
   6.036076484718139E-04   6.112000980276730E-04   6.188880488423449E-04
   6.266727021737863E-04   6.345552743899178E-04   6.425369971586851E-04
   6.506191176405105E-04   6.588028986831617E-04   6.670896190190775E-04
   6.754805734651693E-04   6.839770731251407E-04   6.925804455943504E-04
   7.012920351672496E-04   7.101132030474339E-04   7.190453275603307E-04
   7.280898043685679E-04   7.372480466900479E-04   7.465214855187658E-04
   7.559115698484062E-04   7.654197668987494E-04   7.750475623449287E-04
   7.847964605495713E-04   7.946679847978553E-04   8.046636775355288E-04
   8.147851006099182E-04   8.250338355139707E-04   8.354114836333672E-04
   8.459196664967386E-04   8.565600260290377E-04   8.673342248080886E-04
   8.782439463243706E-04   8.892908952440673E-04   9.004767976754219E-04
   9.118034014384480E-04   9.232724763380273E-04   9.348858144404464E-04
   9.466452303534123E-04   9.585525615095851E-04   9.706096684536846E-04
   9.828184351332006E-04   9.951807691927653E-04   1.007698602272228E-03
   1.020373890308474E-03   1.033208613841048E-03   1.046204778321614E-03
   1.059364414427312E-03   1.072689578378058E-03   1.086182352257830E-03
   1.099844844339998E-03   1.113679189416745E-03   1.127687549132637E-03
   1.141872112322378E-03   1.156235095352827E-03   1.170778742469303E-03
   1.185505326146259E-03   1.200417147442353E-03   1.215516536360003E-03
   1.230805852209447E-03   1.246287483977393E-03   1.261963850700302E-03
   1.277837401842368E-03   1.293910617678252E-03   1.310186009680630E-03
   1.326666120912615E-03   1.343353526425116E-03   1.360250833659195E-03
   1.377360682853484E-03   1.394685747456732E-03   1.412228734545530E-03
   1.429992385247303E-03   1.447979475168612E-03   1.466192814828852E-03
   1.484635250099404E-03   1.503309662648297E-03   1.522218970390486E-03
   1.541366127943778E-03   1.560754127090493E-03   1.580385997244946E-03
   1.600264805926789E-03   1.620393659240322E-03   1.640775702359828E-03
   1.661414120021010E-03   1.682312137018620E-03   1.703473018710330E-03
   1.724900071526957E-03   1.746596643489096E-03   1.768566124730257E-03
   1.790811948026584E-03   1.813337589333226E-03   1.836146568327465E-03
   1.859242448958674E-03   1.882628840005190E-03   1.906309395638196E-03
   1.930287815992688E-03   1.954567847745629E-03   1.979153284701380E-03
   2.004047968384482E-03   2.029255788639914E-03   2.054780684240873E-03
   2.080626643504229E-03   2.106797704913700E-03   2.133297957750874E-03
   2.160131542734179E-03   2.187302652665857E-03   2.214815533087116E-03
   2.242674482941497E-03   2.270883855246592E-03   2.299448057774221E-03
   2.328371553739140E-03   2.357658862496440E-03   2.387314560247699E-03
   2.417343280756024E-03   2.447749716070092E-03   2.478538617257281E-03
   2.509714795146044E-03   2.541283121077602E-03   2.573248527667106E-03
   2.605616009574376E-03   2.638390624284309E-03   2.671577492897134E-03
   2.705181800928590E-03   2.739208799120175E-03   2.773663804259588E-03
   2.808552200011479E-03   2.843879437758666E-03   2.879651037453921E-03
   2.915872588482473E-03   2.952549750535361E-03   2.989688254493783E-03
   3.027293903324537E-03   3.065372572986764E-03   3.103930213350068E-03
   3.142972849124201E-03   3.182506580800439E-03   3.222537585604788E-03
   3.263072118463192E-03   3.304116512978877E-03   3.345677182421989E-03
   3.387760620731691E-03   3.430373403530834E-03   3.473522189153428E-03
   3.517213719685013E-03   3.561454822016124E-03   3.606252408909012E-03
   3.651613480077771E-03   3.697545123282057E-03   3.744054515434570E-03
   3.791148923722455E-03   3.838835706742827E-03   3.887122315652549E-03
   3.936016295332503E-03   3.985525285566492E-03   4.035657022234959E-03
   4.086419338523764E-03   4.137820166148097E-03   4.189867536591852E-03
   4.242569582362550E-03   4.295934538262064E-03   4.349970742673331E-03
   4.404686638863225E-03   4.460090776301847E-03   4.516191811998391E-03
   4.572998511853820E-03   4.630519752030566E-03   4.688764520339434E-03
   4.747741917643970E-03   4.807461159282494E-03   4.867931576508007E-03
   4.929162617946238E-03   4.991163851071982E-03   5.053944963704059E-03
   5.117515765519044E-03   5.181886189584054E-03   5.247066293908820E-03
   5.313066263017249E-03   5.379896409538792E-03   5.447567175819810E-03
   5.516089135555205E-03   5.585472995440608E-03   5.655729596845281E-03
   5.726869917506132E-03   5.798905073242999E-03   5.871846319695522E-03
   5.945705054081866E-03   6.020492816979539E-03   6.096221294128655E-03
   6.172902318257838E-03   6.250547870933109E-03   6.329170084430058E-03
   6.408781243629495E-03   6.489393787937016E-03   6.571020313226677E-03
   6.653673573809117E-03   6.737366484424476E-03   6.822112122260306E-03
   6.907923728994932E-03   6.994814712866494E-03   7.082798650767996E-03
   7.171889290368754E-03   7.262100552262453E-03   7.353446532142301E-03
   7.445941503003501E-03   7.539599917373424E-03   7.634436409569879E-03
   7.730465797987709E-03   7.827703087414229E-03   7.926163471373746E-03
   8.025862334501560E-03   8.126815254947892E-03   8.229038006811944E-03
   8.332546562606668E-03   8.437357095754498E-03   8.543485983114467E-03
   8.650949807541162E-03   8.759765360475780E-03   8.869949644569854E-03
   8.981519876341945E-03   9.094493488867750E-03   9.208888134504090E-03
   9.324721687647074E-03   9.442012247525047E-03   9.560778141026618E-03
   9.681037925564273E-03   9.802810391974026E-03   9.926114567451502E-03
   1.005096971852498E-02   1.017739535406583E-02   1.030541122833682E-02
   1.043503734407876E-02   1.056629395563597E-02   1.069920157212103E-02
   1.083378096061944E-02   1.097005314943443E-02   1.110803943137278E-02
   1.124776136707176E-02   1.138924078836809E-02   1.153249980170920E-02
   1.167756079160736E-02   1.182444642413741E-02   1.197317965047826E-02
   1.212378371049911E-02   1.227628213639075E-02   1.243069875634249E-02
   1.258705769826537E-02   1.274538339356217E-02   1.290570058094490E-02
   1.306803431030026E-02   1.323240994660371E-02   1.339885317388288E-02
   1.356738999923064E-02   1.373804675686885E-02   1.391085011226310E-02
   1.408582706628922E-02   1.426300495945230E-02   1.444241147615860E-02
   1.462407464904136E-02   1.480802286334095E-02   1.499428486134008E-02
   1.518288974685491E-02   1.537386698978253E-02   1.556724643070567E-02
   1.576305828555542E-02   1.596133315033246E-02   1.616210200588784E-02
   1.636539622276369E-02   1.657124756609501E-02   1.677968820057299E-02
   1.699075069547084E-02   1.720446802973283E-02   1.742087359712722E-02
   1.764000121146420E-02   1.786188511187934E-02   1.808655996818348E-02
   1.831406088628006E-02   1.854442341365036E-02   1.877768354490797E-02
   1.901387772742296E-02   1.925304286701689E-02   1.949521633372942E-02
   1.974043596765742E-02   1.998874008486760E-02   2.024016748338345E-02
   2.049475744924750E-02   2.075254976265992E-02   2.101358470419414E-02
   2.127790306109087E-02   2.154554613363112E-02   2.181655574158948E-02
   2.209097423076862E-02   2.236884447961575E-02   2.265020990592258E-02
   2.293511447360944E-02   2.322360269959462E-02   2.351571966075042E-02
   2.381151100094631E-02   2.411102293818100E-02   2.441430227180404E-02
   2.472139638982831E-02   2.503235327633458E-02   2.534722151896900E-02
   2.566605031653508E-02   2.598888948668111E-02   2.631578947368421E-02
   2.664680135633249E-02   2.698197685590603E-02   2.732136834425857E-02
   2.766502885200065E-02   2.801301207678577E-02   2.836537239170083E-02
   2.872216485376190E-02   2.908344521251706E-02   2.944926991875740E-02
   2.981969613333754E-02   3.019478173610717E-02   3.057458533495483E-02
   3.095916627496556E-02   3.134858464769365E-02   3.174290130055212E-02
   3.214217784632026E-02   3.254647667277066E-02   3.295586095241750E-02
   3.337039465238738E-02   3.379014254441425E-02   3.421517021496030E-02
   3.464554407546374E-02   3.508133137271588E-02   3.552260019936853E-02
   3.596941950457359E-02   3.642185910475662E-02   3.687998969452563E-02
   3.734388285771732E-02   3.781361107858225E-02   3.828924775311056E-02
   3.877086720050042E-02   3.925854467477028E-02   3.975235637651772E-02
   4.025237946482579E-02   4.075869206931929E-02   4.127137330237287E-02
   4.179050327147221E-02   4.231616309173115E-02   4.284843489856608E-02
   4.338740186052969E-02   4.393314819230640E-02   4.448575916787084E-02
   4.504532113381225E-02   4.561192152282622E-02   4.618564886737628E-02
   4.676659281352733E-02   4.735484413495288E-02   4.795049474711868E-02
   4.855363772164476E-02   4.916436730084796E-02   4.978277891246764E-02
   5.040896918457623E-02   5.104303596067777E-02   5.168507831499601E-02
   5.233519656795505E-02   5.299349230185466E-02   5.366006837674252E-02
   5.433502894648651E-02   5.501847947504887E-02   5.571052675296512E-02
   5.641127891403051E-02   5.712084545219587E-02   5.783933723867640E-02
   5.856686653927551E-02   5.930354703192654E-02   6.004949382445537E-02
   6.080482347256591E-02   6.156965399805242E-02   6.234410490724057E-02
   6.312829720966047E-02   6.392235343695496E-02   6.472639766202502E-02
   6.554055551841664E-02   6.636495421995131E-02   6.719972258060333E-02
   6.804499103462755E-02   6.890089165693952E-02   6.976755818375284E-02
   7.064512603347559E-02   7.153373232786961E-02   7.243351591347651E-02
   7.334461738331188E-02   7.426717909883419E-02   7.520134521218858E-02
   7.614726168873055E-02   7.710507632983434E-02   7.807493879598601E-02
   7.905700063016927E-02   8.005141528154383E-02   8.105833812942187E-02
   8.207792650754725E-02   8.311033972867814E-02   8.415573910948090E-02
   8.521428799573587E-02   8.628615178785982E-02   8.737149796675135E-02
   8.847049611995869E-02   8.958331796817942E-02   9.071013739209151E-02
   9.185113045952215E-02   9.300647545295983E-02   9.417635289741001E-02
   9.536094558860371E-02   9.656043862155912E-02   9.777501941950273E-02
   9.900487776315564E-02   1.002502058203859E-01   1.015111981762361E-01
   1.027880518633278E-01   1.040809663926468E-01   1.053901437847192E-01
   1.067157886011757E-01   1.080581079767161E-01   1.094173116514740E-01
   1.107936120037884E-01   1.121872240833901E-01   1.135983656450012E-01
   1.150272571823620E-01   1.164741219626826E-01   1.179391860615280E-01
   1.194226783981449E-01   1.209248307712287E-01   1.224458778951439E-01
   1.239860574365985E-01   1.255456100517790E-01   1.271247794239548E-01
   1.287238123015528E-01   1.303429585367135E-01   1.319824711243306E-01
   1.336426062415811E-01   1.353236232879550E-01   1.370257849257855E-01
   1.387493571212918E-01   1.404946091861363E-01   1.422618138195044E-01
   1.440512471507159E-01   1.458631887823691E-01   1.476979218340304E-01
   1.495557329864723E-01   1.514369125264666E-01   1.533417543921442E-01
   1.552705562189215E-01   1.572236193860085E-01   1.592012490634987E-01
   1.612037542600523E-01   1.632314478711808E-01   1.652846467281359E-01
   1.673636716474166E-01   1.694688474808964E-01   1.716005031665819E-01
   1.737589717800114E-01   1.759445905862966E-01   1.781577010928230E-01
   1.803986491026101E-01   1.826677847683430E-01   1.849654626470869E-01
   1.872920417556841E-01   1.896478856268543E-01   1.920333623659957E-01
   1.944488447087013E-01   1.968947100790022E-01   1.993713406483381E-01
   2.018791233952744E-01   2.044184501659678E-01   2.069897177353919E-01
   2.095933278693363E-01   2.122296873871809E-01   2.148992082254644E-01
   2.176023075022493E-01   2.203394075822964E-01   2.231109361430627E-01
   2.259173262415236E-01   2.287590163818422E-01   2.316364505838845E-01
   2.345500784525983E-01   2.375003552482666E-01   2.404877419576402E-01
   2.435127053659708E-01   2.465757181299457E-01   2.496772588515402E-01
   2.528178121528029E-01   2.559978687515760E-01   2.592179255381732E-01
   2.624784856530191E-01   2.657800585652645E-01   2.691231601523950E-01
   2.725083127808341E-01   2.759360453875677E-01   2.794068935627897E-01
   2.829213996335883E-01   2.864801127486881E-01   2.900835889642527E-01
   2.937323913307727E-01   2.974270899810418E-01   3.011682622192400E-01
   3.049564926111422E-01   3.087923730754530E-01   3.126765029762999E-01
   3.166094892168826E-01   3.205919463343019E-01   3.246244965955860E-01
   3.287077700949161E-01   3.328424048520848E-01   3.370290469121853E-01
   3.412683504465561E-01   3.455609778550008E-01   3.499075998692839E-01
   3.543088956579397E-01   3.587655529323885E-01   3.632782680543972E-01
   3.678477461448855E-01   3.724747011941002E-01   3.771598561731829E-01
   3.819039431471296E-01   3.867077033891826E-01   3.915718874966539E-01
   3.964972555082051E-01   4.014845770226100E-01   4.065346313190007E-01
   4.116482074786361E-01   4.168261045081956E-01   4.220691314646230E-01
   4.273781075815489E-01   4.327538623972911E-01   4.381972358844775E-01
   4.437090785812908E-01   4.492902517243648E-01   4.549416273833596E-01
   4.606640885972181E-01   4.664585295121485E-01   4.723258555213330E-01
   4.782669834063965E-01   4.842828414806598E-01   4.903743697341846E-01
   4.965425199806549E-01   5.027882560060966E-01   5.091125537194688E-01
   5.155164013051584E-01   5.220007993773772E-01   5.285667611365176E-01
   5.352153125274639E-01   5.419474923998957E-01   5.487643526706167E-01
   5.556669584879113E-01   5.626563883979827E-01   5.697337345134756E-01
   5.769001026841177E-01   5.841566126695175E-01   5.915043983141217E-01
   5.989446077243876E-01   6.064784034481737E-01   6.141069626563874E-01
   6.218314773269276E-01   6.296531544309251E-01   6.375732161213415E-01
   6.455928999239309E-01   6.537134589306013E-01   6.619361619952210E-01
   6.702622939318710E-01   6.786931557156070E-01   6.872300646857367E-01
   6.958743547516527E-01   7.046273766012673E-01   7.134904979120502E-01
   7.224651035647395E-01   7.315525958597288E-01   7.407543947361751E-01
   7.500719379938768E-01   7.595066815179220E-01   7.690600995061827E-01
   7.787336846996574E-01   7.885289486157112E-01   7.984474217842621E-01
   8.084906539869193E-01   8.186602144991489E-01   8.289576923354728E-01
   8.393846964977500E-01   8.499428562265979E-01   8.606338212559519E-01
   8.714592620708503E-01   8.824208701684464E-01   8.935203583223040E-01
   9.047594608500323E-01   9.161399338842644E-01   9.276635556470668E-01
   9.393321267277871E-01   9.511474703643931E-01   9.631114327283694E-01
   9.752258832131735E-01   9.874927147263421E-01   9.999138439852580E-01
   1.012491211816635E+00   1.025226783459790E+00   1.038122548873699E+00
   1.051180523047946E+00   1.064402746317564E+00   1.077791284681837E+00
   1.091348230127127E+00   1.105075700953737E+00   1.118975842106915E+00
   1.133050825511999E+00   1.147302850413777E+00   1.161734143720139E+00
   1.176346960350023E+00   1.191143583585757E+00   1.206126325429829E+00
   1.221297526966131E+00   1.236659558725772E+00   1.252214821057466E+00
   1.267965744502600E+00   1.283914790175012E+00   1.300064450145531E+00
   1.316417247831390E+00   1.332975738390491E+00   1.349742509120677E+00
   1.366720179863987E+00   1.383911403416012E+00   1.401318865940413E+00
   1.418945287388620E+00   1.436793421924848E+00   1.454866058356434E+00
   1.473166020569583E+00   1.491696167970628E+00   1.510459395932796E+00
   1.529458636248631E+00   1.548696857588091E+00   1.568177065962394E+00
   1.587902305193738E+00   1.607875657390878E+00   1.628100243430734E+00
   1.648579223446024E+00   1.669315797319035E+00   1.690313205181630E+00
   1.711574727921500E+00   1.733103687694834E+00   1.754903448445400E+00
   1.776977416430162E+00   1.799329040751532E+00   1.821961813896280E+00
   1.844879272281259E+00   1.868084996805972E+00   1.891582613412081E+00
   1.915375793649993E+00   1.939468255252522E+00   1.963863762715813E+00
   1.988566127887544E+00   2.013579210562523E+00   2.038906919085815E+00
   2.064553210963399E+00   2.090522093480562E+00   2.116817624328034E+00
   2.143443912236004E+00   2.170405117616135E+00   2.197705453211613E+00
   2.225349184755421E+00   2.253340631636859E+00   2.281684167576445E+00
   2.310384221309340E+00   2.339445277277324E+00   2.368871876329521E+00
   2.398668616431907E+00   2.428840153385734E+00   2.459391201555046E+00
   2.490326534603267E+00   2.521650986239128E+00   2.553369450971933E+00
   2.585486884876318E+00   2.618008306366683E+00   2.650938796981293E+00
   2.684283502176308E+00   2.718047632129759E+00   2.752236462555638E+00
   2.786855335528264E+00   2.821909660316962E+00   2.857404914231305E+00
   2.893346643476937E+00   2.929740464022167E+00   2.966592062475509E+00
   3.003907196974185E+00   3.041691698083886E+00   3.079951469709787E+00
   3.118692490019035E+00   3.157920812374883E+00   3.197642566282499E+00
   3.237863958346751E+00   3.278591273241986E+00   3.319830874694004E+00
   3.361589206474448E+00   3.403872793407604E+00   3.446688242389963E+00
   3.490042243422544E+00   3.533941570656198E+00   3.578393083450135E+00
   3.623403727443650E+00   3.668980535641452E+00   3.715130629512553E+00
   3.761861220103000E+00   3.809179609162662E+00   3.857093190286084E+00
   3.905609450067805E+00   3.954735969272131E+00   4.004480424017622E+00
   4.054850586976550E+00   4.105854328589345E+00   4.157499618294406E+00
   4.209794525773334E+00   4.262747222211798E+00   4.316365981576368E+00
   4.370659181907266E+00   4.425635306627512E+00   4.481302945868451E+00
   4.537670797811956E+00   4.594747670049591E+00   4.652542480958749E+00
   4.711064261096229E+00   4.770322154609246E+00   4.830325420664210E+00
   4.891083434893535E+00   4.952605690860540E+00   5.014901801542894E+00
   5.077981500834647E+00   5.141854645067130E+00   5.206531214549099E+00
   5.272021315126101E+00   5.338335179759603E+00   5.405483170125878E+00
   5.473475778235017E+00   5.542323628070388E+00   5.612037477248580E+00
   5.682628218700371E+00   5.754106882372741E+00   5.826484636952294E+00
   5.899772791610455E+00   5.973982797770477E+00   6.049126250896812E+00
   6.125214892306903E+00   6.202260611005753E+00   6.280275445543681E+00
   6.359271585897283E+00   6.439261375374221E+00   6.520257312541851E+00
   6.602272053180121E+00   6.685318412259138E+00   6.769409365941446E+00
   6.854558053609653E+00   6.940777779919454E+00   7.028082016878478E+00
   7.116484405951394E+00   7.205998760191330E+00   7.296639066398263E+00
   7.388419487304462E+00   7.481354363787393E+00   7.575458217110615E+00
   7.670745751192636E+00   7.767231854904534E+00   7.864931604396331E+00
   7.963860265452627E+00   8.064033295878016E+00   8.165466347912274E+00
   8.268175270676164E+00   8.372176112647844E+00   8.477485124170435E+00
   8.584118759991272E+00   8.692093681832866E+00   8.801426760996449E+00
   8.912135080998093E+00   9.024235940238009E+00   9.137746854703556E+00
   9.252685560706022E+00   9.369070017652081E+00   9.486918410849940E+00
   9.606249154350760E+00   9.727080893826033E+00   9.849432509480847E+00
   9.973323119004093E+00   1.009877208055559E+01   1.022579899579076E+01
   1.035442371292359E+01   1.048466632982779E+01   1.061654719717724E+01
   1.075008692162580E+01   1.088530636902707E+01   1.102222666769485E+01
   1.116086921170433E+01   1.130125566423510E+01   1.144340796095602E+01
   1.158734831345260E+01   1.173309921269783E+01   1.188068343256620E+01
   1.203012403339234E+01   1.218144436557420E+01   1.233466807322150E+01
   1.248981909785034E+01   1.264692168212393E+01   1.280600037364072E+01
   1.296708002876992E+01   1.313018581653532E+01   1.329534322254814E+01
   1.346257805298906E+01   1.363191643864058E+01   1.380338483897001E+01
   1.397701004626371E+01   1.415281918981362E+01   1.433083974015604E+01
   1.451109951336418E+01   1.469362667539437E+01   1.487844974648698E+01
   1.506559760562294E+01   1.525509949503596E+01   1.544698502478181E+01
   1.564128417736495E+01   1.583802731242322E+01   1.603724517147179E+01
   1.623896888270641E+01   1.644322996586739E+01   1.665006033716458E+01
   1.685949231426423E+01   1.707155862133892E+01   1.728629239418052E+01
   1.750372718537794E+01   1.772389696955972E+01   1.794683614870251E+01
   1.817257955750669E+01   1.840116246883910E+01   1.863262059924472E+01
   1.886699011452736E+01   1.910430763540056E+01   1.934461024320984E+01
   1.958793548572650E+01   1.983432138301477E+01   2.008380643337241E+01
   2.033642961934605E+01   2.059223041382254E+01   2.085124878619637E+01
   2.111352520861524E+01   2.137910066230379E+01   2.164801664396690E+01
   2.192031517227392E+01   2.219603879442378E+01   2.247523059279346E+01
   2.275793419166952E+01   2.304419376406437E+01   2.333405403861866E+01
   2.362756030658996E+01   2.392475842892980E+01   2.422569484344950E+01
   2.453041657207601E+01   2.483897122819947E+01   2.515140702411257E+01
   2.546777277854412E+01   2.578811792428695E+01   2.611249251592174E+01