<UPF version="2.0.1">
  <PP_INFO>
    Generated using "atomic" code by A. Dal Corso  v.7.2
    Author: ADC
    Generation date: 20Sep2023
    Pseudopotential type: USPP
    Element: Ta
    Functional: PBE
    Suggested minimum cutoff for wavefunctions:  44. Ry
    Suggested minimum cutoff for charge density: 265. Ry
    The Pseudo was generated with a Fully-Relativistic Calculation
    Local Potential by smoothing AE potential with Bessel fncs, cutoff radius:   2.3000
    Pseudopotential contains additional information for spin-orbit calculations.
    Valence configuration: 
    nl pn  l   occ       Rcut    Rcut US       E pseu
    5S  1  0  2.00      1.000      1.500    -5.324097
    6S  2  0  2.00      1.000      1.500    -0.393160
    5P  2  1  2.00      1.100      1.400    -3.330628
    5P  2  1  4.00      1.100      1.400    -2.689246
    5D  3  2  3.00      1.500      1.800    -0.274727
    5D  3  2  0.00      1.500      1.800    -0.232739
    Generation configuration:
    5S  1  0  2.00      1.000      1.500    -5.324098
    6S  2  0  2.00      1.000      1.500    -0.393160
    5P  2  1  2.00      1.100      1.400    -3.330628
    5P  2  1  4.00      1.100      1.400    -2.689246
    6P  3  1  0.00      1.100      1.400    -2.400000
    6P  3  1  0.00      1.100      1.400    -2.400000
    5D  3  2  3.00      1.500      1.800    -0.274728
    5D  3  2  0.00      1.500      1.800    -0.232737
    5D  3  2  0.00      1.500      1.800     0.050000
    5D  3  2  0.00      1.500      1.800     0.050000
    Pseudization used: troullier-martins
    <PP_INPUTFILE>
@input
title='Ta',
zed=73.,
rel=2,
config='[Xe] 4f14 6s2 6p0 5d3',
iswitch=3,
dft='PBE'
/
@inputp
lpaw=.false.,
pseudotype=3,
file_pseudopw='Ta.rel-pbe-spn-rrkjus_psl.1.0.0.UPF',
author='ADC',
lloc=-1,
rcloc=2.3,
which_augfun='PSQ',
rmatch_augfun_nc=.true.,
nlcc=.true.,
new_core_ps=.true.,
rcore=1.2,
tm=.true.
/
6
5S  1  0  2.00  0.00  1.00  1.50  0.0
6S  2  0  2.00  0.00  1.00  1.50  0.0
5P  2  1  6.00  0.00  1.10  1.40  0.0
6P  3  1  0.00 -2.40  1.10  1.40  0.0
5D  3  2  3.00  0.00  1.50  1.80  0.0
5D  3  2  0.00  0.05  1.50  1.80  0.0
    </PP_INPUTFILE>
  </PP_INFO>
    <!-- END OF HUMAN READABLE SECTION -->
  <PP_HEADER generated="Generated using 'atomic' code by A. Dal Corso  v.7.2" author="ADC" date="20Sep2023" comment="" element="Ta" pseudo_type="USPP" relativistic="full" is_ultrasoft="true" is_paw="false" is_coulomb="false" has_so="true" has_wfc="false" has_gipaw="false" paw_as_gipaw="false" core_correction="true" functional="PBE" z_valence="13.000000000000000" total_psenergy="-139.95675919439594" wfc_cutoff="43.793065127874186" rho_cutoff="264.82645034862310" l_max="2" l_max_rho="4" l_local="-1" mesh_size="1273" number_of_wfc="6" number_of_proj="10"/>
  <PP_MESH mesh="1273" dx="1.2500000000000001E-002" xmin="-7.0000000000000000" rmax="100.00000000000000" zmesh="73.000000000000000">
    <PP_R>
   1.249153377471940E-05   1.264865792697291E-05   1.280775845776140E-05
   1.296886022686649E-05   1.313198840676740E-05   1.329716848657409E-05
   1.346442627601012E-05   1.363378790944536E-05   1.380527984997960E-05
   1.397892889357746E-05   1.415476217325530E-05   1.433280716332080E-05
   1.451309168366589E-05   1.469564390411366E-05   1.488049234881997E-05
   1.506766590073039E-05   1.525719380609319E-05   1.544910567902921E-05
   1.564343150615901E-05   1.584020165128846E-05   1.603944686015307E-05
   1.624119826522209E-05   1.644548739056302E-05   1.665234615676733E-05
   1.686180688593810E-05   1.707390230674040E-05   1.728866555951527E-05
   1.750613020145787E-05   1.772633021186093E-05   1.794929999742411E-05
   1.817507439763002E-05   1.840368869018804E-05   1.863517859654649E-05
   1.886958028747421E-05   1.910693038871231E-05   1.934726598669701E-05
   1.959062463435444E-05   1.983704435696843E-05   2.008656365812196E-05
   2.033922152571352E-05   2.059505743804894E-05   2.085411137001002E-05
   2.111642379930069E-05   2.138203571277167E-05   2.165098861282489E-05
   2.192332452389814E-05   2.219908599903160E-05   2.247831612651680E-05
   2.276105853662923E-05   2.304735740844577E-05   2.333725747674759E-05
   2.363080403901017E-05   2.392804296248109E-05   2.422902069134686E-05
   2.453378425399000E-05   2.484238127033719E-05   2.515485995930010E-05
   2.547126914630960E-05   2.579165827094490E-05   2.611607739465858E-05
   2.644457720859876E-05   2.677720904152969E-05   2.711402486785201E-05
   2.745507731572382E-05   2.780041967528403E-05   2.815010590697889E-05
   2.850419064999355E-05   2.886272923078951E-05   2.922577767174943E-05
   2.959339269993089E-05   2.996563175592993E-05   3.034255300285640E-05
   3.072421533542196E-05   3.111067838914256E-05   3.150200254965666E-05
   3.189824896216046E-05   3.229947954096209E-05   3.270575697915580E-05
   3.311714475841785E-05   3.353370715892580E-05   3.395550926940217E-05
   3.438261699728491E-05   3.481509707902545E-05   3.525301709051644E-05
   3.569644545765066E-05   3.614545146701263E-05   3.660010527670480E-05
   3.706047792730995E-05   3.752664135299134E-05   3.799866839273272E-05
   3.847663280171935E-05   3.896060926286257E-05   3.945067339846908E-05
   3.994690178205709E-05   4.044937195032119E-05   4.095816241524740E-05
   4.147335267638103E-05   4.199502323324854E-05   4.252325559793573E-05
   4.305813230782439E-05   4.359973693848859E-05   4.414815411675379E-05
   4.470346953391984E-05   4.526576995915044E-05   4.583514325303113E-05
   4.641167838129742E-05   4.699546542873609E-05   4.758659561326101E-05
   4.818516130016614E-05   4.879125601655794E-05   4.940497446596891E-05
   5.002641254315539E-05   5.065566734908126E-05   5.129283720609014E-05
   5.193802167326860E-05   5.259132156200224E-05   5.325283895172782E-05
   5.392267720588333E-05   5.460094098805877E-05   5.528773627835011E-05
   5.598317038991872E-05   5.668735198575941E-05   5.740039109567917E-05
   5.812239913348960E-05   5.885348891441561E-05   5.959377467272286E-05
   6.034337207956720E-05   6.110239826106852E-05   6.187097181661186E-05
   6.264921283737909E-05   6.343724292511295E-05   6.423518521111796E-05
   6.504316437549970E-05   6.586130666664638E-05   6.668973992095565E-05
   6.752859358280893E-05   6.837799872479750E-05   6.923808806820293E-05
   7.010899600373495E-05   7.099085861253048E-05   7.188381368741622E-05
   7.278800075443939E-05   7.370356109466877E-05   7.463063776627021E-05
   7.556937562685988E-05   7.651992135613835E-05   7.748242347880971E-05
   7.845703238778883E-05   7.944390036770057E-05   8.044318161867469E-05
   8.145503228043965E-05   8.247961045671999E-05   8.351707623994024E-05
   8.456759173623974E-05   8.563132109080222E-05   8.670843051350338E-05
   8.779908830488197E-05   8.890346488243681E-05   9.002173280725497E-05
   9.115406681097498E-05   9.230064382308859E-05   9.346164299858667E-05
   9.463724574595250E-05   9.582763575550700E-05   9.703299902811131E-05
   9.825352390422875E-05   9.948940109335468E-05   1.007408237038142E-04
   1.020079872729361E-04   1.032910897976065E-04   1.045903317652049E-04
   1.059059161849325E-04   1.072380486195311E-04   1.085869372174040E-04
   1.099527927451392E-04   1.113358286204412E-04   1.127362609454799E-04
   1.141543085406549E-04   1.155901929787881E-04   1.170441386197445E-04
   1.185163726454881E-04   1.200071250955812E-04   1.215166289031268E-04
   1.230451199311660E-04   1.245928370095318E-04   1.261600219721663E-04
   1.277469196949086E-04   1.293537781337563E-04   1.309808483636097E-04
   1.326283846175026E-04   1.342966443263264E-04   1.359858881590550E-04
   1.376963800634738E-04   1.394283873074228E-04   1.411821805205582E-04
   1.429580337366370E-04   1.447562244363377E-04   1.465770335906155E-04
   1.484207457046048E-04   1.502876488620752E-04   1.521780347704425E-04
   1.540921988063516E-04   1.560304400618271E-04   1.579930613910085E-04
   1.599803694574720E-04   1.619926747821455E-04   1.640302917918304E-04
   1.660935388683301E-04   1.681827383981977E-04   1.702982168231109E-04
   1.724403046908767E-04   1.746093367070831E-04   1.768056517873955E-04
   1.790295931105134E-04   1.812815081717937E-04   1.835617488375456E-04
   1.858706714000128E-04   1.882086366330431E-04   1.905760098484605E-04
   1.929731609531471E-04   1.954004645068391E-04   1.978582997806559E-04
   2.003470508163592E-04   2.028671064863616E-04   2.054188605544893E-04
   2.080027117375061E-04   2.106190637674169E-04   2.132683254545492E-04
   2.159509107514313E-04   2.186672388174743E-04   2.214177340844640E-04
   2.242028263228826E-04   2.270229507090583E-04   2.298785478931638E-04
   2.327700640680696E-04   2.356979510390600E-04   2.386626662944317E-04
   2.416646730769748E-04   2.447044404563567E-04   2.477824434024153E-04
   2.508991628593723E-04   2.540550858209847E-04   2.572507054066358E-04
   2.604865209383871E-04   2.637630380189991E-04   2.670807686109315E-04
   2.704402311163395E-04   2.738419504580744E-04   2.772864581617040E-04
   2.807742924385652E-04   2.843059982698595E-04   2.878821274918087E-04
   2.915032388818791E-04   2.951698982460928E-04   2.988826785074352E-04
   3.026421597953759E-04   3.064489295365151E-04   3.103035825463695E-04
   3.142067211223141E-04   3.181589551376928E-04   3.221609021371110E-04
   3.262131874329299E-04   3.303164442029709E-04   3.344713135894526E-04
   3.386784447991699E-04   3.429384952049335E-04   3.472521304482869E-04
   3.516200245435128E-04   3.560428599829500E-04   3.605213278436344E-04
   3.650561278952806E-04   3.696479687096231E-04   3.742975677711311E-04
   3.790056515891175E-04   3.837729558112578E-04   3.886002253385356E-04
   3.934882144416360E-04   3.984376868788010E-04   4.034494160151683E-04
   4.085241849436125E-04   4.136627866071028E-04   4.188660239226041E-04
   4.241347099065328E-04   4.294696678017930E-04   4.348717312064103E-04
   4.403417442037817E-04   4.458805614945675E-04   4.514890485302379E-04
   4.571680816483025E-04   4.629185482092405E-04   4.687413467351511E-04
   4.746373870501510E-04   4.806075904225348E-04   4.866528897087255E-04
   4.927742294990365E-04   4.989725662652635E-04   5.052488685101372E-04
   5.116041169186523E-04   5.180393045113025E-04   5.245554367992420E-04
   5.311535319413974E-04   5.378346209035591E-04   5.445997476194701E-04
   5.514499691539432E-04   5.583863558680305E-04   5.654099915862677E-04
   5.725219737660262E-04   5.797234136689906E-04   5.870154365347971E-04
   5.943991817568545E-04   6.018758030603757E-04   6.094464686826510E-04
   6.171123615555866E-04   6.248746794905398E-04   6.327346353654811E-04
   6.406934573145066E-04   6.487523889197387E-04   6.569126894056366E-04
   6.651756338357530E-04   6.735425133119669E-04   6.820146351762184E-04
   6.905933232147860E-04   6.992799178651290E-04   7.080757764253344E-04
   7.169822732661970E-04   7.260008000459699E-04   7.351327659278101E-04
   7.443795977999657E-04   7.537427404987296E-04   7.632236570341972E-04
   7.728238288188678E-04   7.825447558991136E-04   7.923879571895682E-04
   8.023549707104596E-04   8.124473538279277E-04   8.226666834973691E-04
   8.330145565098353E-04   8.434925897415374E-04   8.541024204064857E-04
   8.648457063123065E-04   8.757241261192818E-04   8.867393796026377E-04
   8.978931879181420E-04   9.091872938710362E-04   9.206234621883529E-04
   9.322034797946602E-04   9.439291560912683E-04   9.558023232389543E-04
   9.678248364442414E-04   9.799985742492770E-04   9.923254388253624E-04
   1.004807356270166E-03   1.017446276908684E-03   1.030244175597978E-03
   1.043203052035758E-03   1.056324931072832E-03   1.069611863029496E-03
   1.083065924015900E-03   1.096689216256446E-03   1.110483868418264E-03
   1.124452035943819E-03   1.138595901387706E-03   1.152917674757677E-03
   1.167419593859957E-03   1.182103924648911E-03   1.196972961581101E-03
   1.212029027973799E-03   1.227274476368010E-03   1.242711688896062E-03
   1.258343077653821E-03   1.274171085077582E-03   1.290198184325708E-03
   1.306426879665064E-03   1.322859706862313E-03   1.339499233580138E-03
   1.356348059778442E-03   1.373408818120599E-03   1.390684174384809E-03
   1.408176827880636E-03   1.425889511870776E-03   1.443824993998142E-03
   1.461986076718304E-03   1.480375597737388E-03   1.498996430455466E-03
   1.517851484415534E-03   1.536943705758133E-03   1.556276077681695E-03
   1.575851620908663E-03   1.595673394157493E-03   1.615744494620583E-03
   1.636068058448214E-03   1.656647261238585E-03   1.677485318533999E-03
   1.698585486323305E-03   1.719951061550648E-03   1.741585382630625E-03
   1.763491829969921E-03   1.785673826495503E-03   1.808134838189456E-03
   1.830878374630555E-03   1.853907989542640E-03   1.877227281349897E-03
   1.900839893739114E-03   1.924749516229016E-03   1.948959884746763E-03
   1.973474782211689E-03   1.998298039126403E-03   2.023433534175299E-03
   2.048885194830618E-03   2.074656997966119E-03   2.100752970478472E-03
   2.127177189916480E-03   2.153933785118187E-03   2.181026936856032E-03
   2.208460878490094E-03   2.236239896629567E-03   2.264368331802556E-03
   2.292850579134282E-03   2.321691089033838E-03   2.350894367889573E-03
   2.380464978773221E-03   2.410407542152897E-03   2.440726736615048E-03
   2.471427299595491E-03   2.502514028119655E-03   2.533991779552114E-03
   2.565865472355576E-03   2.598140086859388E-03   2.630820666037729E-03
   2.663912316297585E-03   2.697420208276631E-03   2.731349577651167E-03
   2.765705725954185E-03   2.800494021403755E-03   2.835719899741819E-03
   2.871388865083532E-03   2.907506490777303E-03   2.944078420275626E-03
   2.981110368016890E-03   3.018608120318274E-03   3.056577536279860E-03
   3.095024548700149E-03   3.133955165003048E-03   3.173375468176560E-03
   3.213291617723258E-03   3.253709850622714E-03   3.294636482306057E-03
   3.336077907642751E-03   3.378040601939816E-03   3.420531121953613E-03
   3.463556106914335E-03   3.507122279563426E-03   3.551236447203995E-03
   3.595905502764485E-03   3.641136425875709E-03   3.686936283961423E-03
   3.733312233342639E-03   3.780271520355797E-03   3.827821482485034E-03
   3.875969549508672E-03   3.924723244660138E-03   3.974090185803498E-03
   4.024078086623739E-03   4.074694757832065E-03   4.125948108386333E-03
   4.177846146726840E-03   4.230396982027670E-03   4.283608825463752E-03
   4.337489991493882E-03   4.392048899159875E-03   4.447294073402051E-03
   4.503234146391290E-03   4.559877858877803E-03   4.617234061556911E-03
   4.675311716451972E-03   4.734119898314720E-03   4.793667796043225E-03
   4.853964714117655E-03   4.915020074054134E-03   4.976843415876869E-03
   5.039444399608799E-03   5.102832806781000E-03   5.167018541961056E-03
   5.232011634300673E-03   5.297822239102761E-03   5.364460639408205E-03
   5.431937247602643E-03   5.500262607043381E-03   5.569447393706841E-03
   5.639502417856696E-03   5.710438625732991E-03   5.782267101262542E-03
   5.854999067790779E-03   5.928645889835446E-03   6.003219074862323E-03
   6.078730275083286E-03   6.155191289277009E-03   6.232614064632516E-03
   6.311010698615974E-03   6.390393440860941E-03   6.470774695082393E-03
   6.552167021014851E-03   6.634583136374831E-03   6.718035918848032E-03
   6.802538408101505E-03   6.888103807821108E-03   6.974745487774648E-03
   7.062476985900881E-03   7.151312010424882E-03   7.241264441999969E-03
   7.332348335876579E-03   7.424577924098456E-03   7.517967617726392E-03
   7.612532009090023E-03   7.708285874067892E-03   7.805244174396205E-03
   7.903422060006668E-03   8.002834871393645E-03   8.103498142011171E-03
   8.205427600700079E-03   8.308639174145663E-03   8.413148989366273E-03
   8.518973376233155E-03   8.626128870022060E-03   8.734632213996901E-03
   8.844500362025918E-03   8.955750481230786E-03   9.068399954668961E-03
   9.182466384049858E-03   9.297967592485135E-03   9.414921627273592E-03
   9.533346762721126E-03   9.653261502996077E-03   9.774684585020588E-03
   9.897634981398255E-03   1.002213190337865E-02   1.014819480385915E-02
   1.027584338042441E-02   1.040509757842423E-02   1.053597759409002E-02
   1.066850387769048E-02   1.080269713672708E-02   1.093857833916955E-02
   1.107616871673223E-02   1.121548976819154E-02   1.135656326274521E-02
   1.149941124341380E-02   1.164405603048491E-02   1.179052022500080E-02
   1.193882671228984E-02   1.208899866554240E-02   1.224105954943172E-02
   1.239503312378027E-02   1.255094344727230E-02   1.270881488121306E-02
   1.286867209333529E-02   1.303054006165362E-02   1.319444407836743E-02
   1.336040975381278E-02   1.352846302046414E-02   1.369863013698630E-02
   1.387093769233746E-02   1.404541260992369E-02   1.422208215180583E-02
   1.440097392295924E-02   1.458211587558711E-02   1.476553631348811E-02
   1.495126389647880E-02   1.513932764487189E-02   1.532975694401070E-02
   1.552258154886063E-02   1.571783158865853E-02   1.591553757162032E-02
   1.611573038970810E-02   1.631844132345697E-02   1.652370204686275E-02
   1.673154463233110E-02   1.694200155568884E-02   1.715510570125843E-02
   1.737089036699617E-02   1.758938926969509E-02   1.781063655025331E-02
   1.803466677900852E-02   1.826151496113977E-02   1.849121654213704E-02
   1.872380741333968E-02   1.895932391754454E-02   1.919780285468457E-02
   1.943928148757888E-02   1.968379754775514E-02   1.993138924134522E-02
   2.018209525505501E-02   2.043595476220919E-02   2.069300742887224E-02
   2.095329342004630E-02   2.121685340594703E-02   2.148372856835848E-02
   2.175396060706773E-02   2.202759174638060E-02   2.230466474171933E-02
   2.258522288630313E-02   2.286931001791292E-02   2.315697052574098E-02
   2.344824935732692E-02   2.374319202558077E-02   2.404184461589450E-02
   2.434425379334300E-02   2.465046680997547E-02   2.496053151219877E-02
   2.527449634825344E-02   2.559241037578387E-02   2.591432326950370E-02
   2.624028532895749E-02   2.657034748638021E-02   2.690456131465546E-02
   2.724297903537386E-02   2.758565352699284E-02   2.793263833309885E-02
   2.828398767077380E-02   2.863975643906654E-02   2.900000022757089E-02
   2.936477532511177E-02   2.973413872854032E-02   3.010814815163977E-02
   3.048686203414341E-02   3.087033955086587E-02   3.125864062094937E-02
   3.165182591722609E-02   3.204995687569853E-02   3.245309570513893E-02
   3.286130539680956E-02   3.327464973430532E-02   3.369319330351987E-02
   3.411700150273743E-02   3.454614055285136E-02   3.498067750771133E-02
   3.542068026460064E-02   3.586621757484523E-02   3.631735905455627E-02
   3.677417519550784E-02   3.723673737615130E-02   3.770511787276859E-02
   3.817938987076509E-02   3.865962747610547E-02   3.914590572689268E-02
   3.963830060509262E-02   4.013688904840692E-02   4.064174896229409E-02
   4.115295923214290E-02   4.167059973559816E-02   4.219475135504152E-02
   4.272549599023007E-02   4.326291657109273E-02   4.380709707068869E-02
   4.435812251832826E-02   4.491607901285854E-02   4.548105373611714E-02
   4.605313496655384E-02   4.663241209302490E-02   4.721897562875996E-02
   4.781291722550467E-02   4.841432968784210E-02   4.902330698769288E-02
   4.963994427899919E-02   5.026433791259242E-02   5.089658545124800E-02
   5.153678568493034E-02   5.218503864622825E-02   5.284144562598593E-02
   5.350610918912952E-02   5.417913319069284E-02   5.486062279204560E-02
   5.555068447732434E-02   5.624942607007138E-02   5.695695675008234E-02
   5.767338707046520E-02   5.839882897491537E-02   5.913339581520609E-02
   5.987720236890078E-02   6.063036485728682E-02   6.139300096353513E-02
   6.216522985108915E-02   6.294717218228342E-02   6.373895013719820E-02
   6.454068743274993E-02   6.535250934202196E-02   6.617454271383950E-02
   6.700691599258912E-02   6.784975923828922E-02   6.870320414691182E-02
   6.956738407096003E-02   7.044243404030537E-02   7.132849078328563E-02
   7.222569274806973E-02   7.313418012429013E-02   7.405409486494749E-02
   7.498558070859185E-02   7.592878320178115E-02   7.688384972182404E-02
   7.785092949980750E-02   7.883017364391412E-02   7.982173516303397E-02
   8.082576899067148E-02   8.184243200915509E-02   8.287188307415000E-02
   8.391428303947926E-02   8.496979478225851E-02   8.603858322834475E-02
   8.712081537810724E-02   8.821666033252143E-02   8.932628931959058E-02
   9.044987572110184E-02   9.158759509971606E-02   9.273962522640100E-02
   9.390614610820798E-02   9.508734001639775E-02   9.628339151492193E-02
   9.749448748926023E-02   9.872081717562281E-02   9.996257219051831E-02
   1.012199465606938E-01   1.024931367534532E-01   1.037823417073541E-01
   1.050877628632935E-01   1.064096041959833E-01   1.077480722458204E-01
   1.091033761511614E-01   1.104757276809983E-01   1.118653412680500E-01
   1.132724340422668E-01   1.146972258647571E-01   1.161399393621422E-01
   1.176007999613410E-01   1.190800359247945E-01   1.205778783861317E-01
   1.220945613862841E-01   1.236303219100566E-01   1.251853999231552E-01
   1.267600384096834E-01   1.283544834101087E-01   1.299689840597058E-01
   1.316037926274864E-01   1.332591645556149E-01   1.349353584993230E-01
   1.366326363673250E-01   1.383512633627405E-01   1.400915080245344E-01
   1.418536422694753E-01   1.436379414346242E-01   1.454446843203563E-01
   1.472741532339227E-01   1.491266340335637E-01   1.510024161731727E-01
   1.529017927475256E-01   1.548250605380766E-01   1.567725200593304E-01
   1.587444756058000E-01   1.607412352995509E-01   1.627631111383479E-01
   1.648104190444046E-01   1.668834789137462E-01   1.689826146661954E-01
   1.711081542959837E-01   1.732604299230031E-01   1.754397778446992E-01
   1.776465385886183E-01   1.798810569656168E-01   1.821436821237368E-01
   1.844347676027631E-01   1.867546713894625E-01   1.891037559735219E-01
   1.914823884041869E-01   1.938909403476138E-01   1.963297881449445E-01
   1.987993128711086E-01   2.012999003943691E-01   2.038319414366144E-01
   2.063958316344081E-01   2.089919716008107E-01   2.116207669879730E-01
   2.142826285505229E-01   2.169779722097457E-01   2.197072191185709E-01
   2.224707957273816E-01   2.252691338506447E-01   2.281026707343855E-01
   2.309718491245075E-01   2.338771173359707E-01   2.368189293228447E-01
   2.397977447492368E-01   2.428140290611184E-01   2.458682535590501E-01
   2.489608954718228E-01   2.520924380310284E-01   2.552633705465619E-01
   2.584741884830806E-01   2.617253935374201E-01   2.650174937169838E-01
   2.683510034191235E-01   2.717264435115114E-01   2.751443414135297E-01
   2.786052311786798E-01   2.821096535780279E-01   2.856581561847046E-01
   2.892512934594607E-01   2.928896268373061E-01   2.965737248152339E-01
   3.003041630410476E-01   3.040815244033105E-01   3.079063991224195E-01
   3.117793848428319E-01   3.157010867264466E-01   3.196721175471606E-01
   3.236930977866199E-01   3.277646557311665E-01   3.318874275700134E-01
   3.360620574946490E-01   3.402891977994911E-01   3.445695089838137E-01
   3.489036598549465E-01   3.532923276327817E-01   3.577361980555889E-01
   3.622359654871617E-01   3.667923330253172E-01   3.714060126117522E-01
   3.760777251432890E-01   3.808082005845163E-01   3.855981780818446E-01
   3.904484060790043E-01   3.953596424339868E-01   4.003326545374650E-01
   4.053682194326984E-01   4.104671239369456E-01   4.156301647644104E-01
   4.208581486507251E-01   4.261518924790091E-01   4.315122234075064E-01
   4.369399789988287E-01   4.424360073508318E-01   4.480011672291256E-01
   4.536363282012645E-01   4.593423707726160E-01   4.651201865239390E-01
   4.709706782507018E-01   4.768947601041377E-01   4.828933577340896E-01
   4.889674084336426E-01   4.951178612855744E-01   5.013456773106580E-01
   5.076518296178164E-01   5.140373035561782E-01   5.205030968690384E-01
   5.270502198497553E-01   5.336796954996167E-01   5.403925596876789E-01
   5.471898613126293E-01   5.540726624666772E-01   5.610420386015041E-01
   5.680990786963125E-01   5.752448854279727E-01   5.824805753433258E-01
   5.898072790336433E-01   5.972261413112809E-01   6.047383213885655E-01
   6.123449930589159E-01   6.200473448802570E-01   6.278465803607330E-01
   6.357439181467531E-01   6.437405922134157E-01   6.518378520573110E-01
   6.600369628917646E-01   6.683392058445269E-01   6.767458781579477E-01
   6.852582933916823E-01   6.938777816279269E-01   7.026056896792562E-01
   7.114433812990615E-01   7.203922373946363E-01   7.294536562429548E-01
   7.386290537091448E-01   7.479198634677293E-01   7.573275372266368E-01
   7.668535449540295E-01   7.764993751079983E-01   7.862665348691266E-01
   7.961565503759999E-01   8.061709669636639E-01   8.163113494050821E-01
   8.265792821556446E-01   8.369763696007312E-01   8.475042363064094E-01
   8.581645272732729E-01   8.689589081934704E-01   8.798890657109857E-01
   8.909567076851646E-01   9.021635634575849E-01   9.135113841222632E-01
   9.250019427992623E-01   9.366370349117565E-01   9.484184784665568E-01
   9.603481143381898E-01   9.724278065565334E-01   9.846594425980695E-01
   9.970449336808184E-01   1.009586215062957E+00   1.022285246345218E+00
   1.035144011777078E+00   1.048164520566793E+00   1.061348807195356E+00
   1.074698931734372E+00   1.088216980167964E+00   1.101905064718703E+00
   1.115765324177646E+00   1.129799924238536E+00   1.144011057836182E+00
   1.158400945489123E+00   1.172971835646584E+00   1.187726005039793E+00
   1.202665759037739E+00   1.217793432007374E+00   1.233111387678381E+00
   1.248622019512499E+00   1.264327751077505E+00   1.280231036425914E+00
   1.296334360478413E+00   1.312640239412149E+00   1.329151221053883E+00
   1.345869885278083E+00   1.362798844410054E+00   1.379940743634098E+00
   1.397298261406845E+00   1.414874109875765E+00   1.432671035302935E+00
   1.450691818494165E+00   1.468939275233487E+00   1.487416256723145E+00
   1.506125650029090E+00   1.525070378532087E+00   1.544253402384511E+00
   1.563677718972863E+00   1.583346363386132E+00   1.603262408890026E+00
   1.623428967407169E+00   1.643849190003364E+00   1.664526267379931E+00
   1.685463430372281E+00   1.706663950454732E+00   1.728131140251674E+00
   1.749868354055192E+00   1.771878988349164E+00   1.794166482339981E+00
   1.816734318493927E+00   1.839586023081309E+00   1.862725166727467E+00
   1.886155364970667E+00   1.909880278827057E+00   1.933903615362699E+00
   1.958229128272795E+00   1.982860618468235E+00   2.007801934669468E+00
   2.033056974007899E+00   2.058629682634808E+00   2.084524056337940E+00
   2.110744141165875E+00   2.137294034060207E+00   2.164177883495719E+00
   2.191399890128585E+00   2.218964307452717E+00   2.246875442464411E+00
   2.275137656335289E+00   2.303755365093773E+00   2.332733040315084E+00
   2.362075209819922E+00   2.391786458381979E+00   2.421871428444280E+00
   2.452334820844612E+00   2.483181395550019E+00   2.514415972400548E+00
   2.546043431862388E+00   2.578068715790418E+00   2.610496828200411E+00
   2.643332836050912E+00   2.676581870034945E+00   2.710249125381722E+00
   2.744339862668381E+00   2.778859408641985E+00   2.813813157051827E+00
   2.849206569492201E+00   2.885045176255818E+00   2.921334577197891E+00
   2.958080442611152E+00   2.995288514111838E+00   3.032964605536811E+00
   3.071114603852018E+00   3.109744470072303E+00   3.148860240192861E+00
   3.188468026132360E+00   3.228574016687926E+00   3.269184478502190E+00
   3.310305757042422E+00   3.351944277592060E+00   3.394106546254662E+00
   3.436799150970474E+00   3.480028762545853E+00   3.523802135695548E+00
   3.568126110098175E+00   3.613007611464921E+00   3.658453652621673E+00
   3.704471334604836E+00   3.751067847770829E+00   3.798250472919643E+00
   3.846026582432459E+00   3.894403641423574E+00   3.943389208906895E+00
   3.992990938976989E+00   4.043216582005100E+00   4.094073985850144E+00
   4.145571097084930E+00   4.197715962237871E+00   4.250516729050225E+00
   4.303981647749236E+00   4.358119072337233E+00   4.412937461896939E+00
   4.468445381913265E+00   4.524651505611629E+00   4.581564615313220E+00
   4.639193603807227E+00   4.697547475740334E+00   4.756635349023768E+00
   4.816466456257928E+00   4.877050146175056E+00   4.938395885099968E+00
   5.000513258429163E+00   5.063411972128620E+00   5.127101854250304E+00
   5.191592856467884E+00   5.256895055631674E+00   5.323018655343134E+00
   5.389973987549267E+00   5.457771514156931E+00   5.526421828667604E+00
   5.595935657832610E+00   5.666323863329161E+00   5.737597443457593E+00
   5.809767534859788E+00   5.882845414259369E+00   5.956842500223680E+00
   6.031770354947930E+00   6.107640686061885E+00   6.184465348459117E+00
   6.262256346149438E+00   6.341025834134514E+00   6.420786120307082E+00
   6.501549667374150E+00   6.583329094804238E+00   6.666137180799277E+00
   6.749986864291189E+00   6.834891246963590E+00   6.920863595299034E+00
   7.007917342651838E+00   7.096066091347151E+00   7.185323614806308E+00
   7.275703859698919E+00   7.367220948122156E+00   7.459889179807252E+00
   7.553723034353956E+00   7.648737173492959E+00   7.744946443376784E+00
   7.842365876899614E+00   7.941010696046115E+00   8.040896314269984E+00
   8.142038338902305E+00   8.244452573590168E+00   8.348155020766139E+00
   8.453161884148543E+00   8.559489571273437E+00   8.667154696058276E+00
   8.776174081397819E+00   8.886564761792863E+00   8.998343986011777E+00
   9.111529219785778E+00   9.226138148537938E+00   9.342188680146513E+00
   9.459698947743210E+00   9.578687312546380E+00   9.699172366730128E+00
   9.821172936329313E+00   9.944708084181114E+00   1.006979711290375E+01
   1.019645956791243E+01   1.032471524047344E+01   1.045458417079660E+01
   1.058608665116644E+01   1.071924322911310E+01   1.085407471062277E+01
   1.099060216338875E+01   1.112884692010334E+01   1.126883058179099E+01
   1.141057502118368E+01   1.155410238613841E+01   1.169943510309797E+01
   1.184659588059509E+01   1.199560771280063E+01   1.214649388311656E+01
   1.229927796781395E+01   1.245398383971688E+01   1.261063567193262E+01
   1.276925794162861E+01   1.292987543385726E+01   1.309251324542846E+01
   1.325719678883119E+01   1.342395179620417E+01   1.359280432335652E+01