<UPF version="2.0.1">
  <PP_INFO>
    Generated using "atomic" code by A. Dal Corso  v.7.2
    Author: ADC
    Generation date: 20Sep2023
    Pseudopotential type: USPP
    Element:  V
    Functional: PBE
    Suggested minimum cutoff for wavefunctions:  48. Ry
    Suggested minimum cutoff for charge density: 645. Ry
    The Pseudo was generated with a Fully-Relativistic Calculation
    Local Potential by smoothing AE potential with Bessel fncs, cutoff radius:   1.5000
    Pseudopotential contains additional information for spin-orbit calculations.
    Valence configuration: 
    nl pn  l   occ       Rcut    Rcut US       E pseu
    3S  1  0  2.00      0.750      1.550    -5.158807
    4S  2  0  2.00      0.750      1.600    -0.345304
    3P  2  1  2.00      0.850      1.400    -3.274902
    3P  2  1  4.00      0.850      1.400    -3.213801
    3D  3  2  3.00      1.000      1.550    -0.380826
    3D  3  2  0.00      1.000      1.550    -0.376020
    Generation configuration:
    3S  1  0  2.00      0.750      1.550    -5.158809
    4S  2  0  2.00      0.750      1.600    -0.345307
    3P  2  1  2.00      0.850      1.400    -3.274902
    3P  2  1  4.00      0.850      1.400    -3.213795
    4P  3  1  0.00      0.850      1.400     7.000000
    4P  3  1  0.00      0.850      1.400     7.000000
    3D  3  2  3.00      1.000      1.550    -0.380830
    3D  3  2  0.00      1.000      1.550    -0.376014
    3D  3  2  0.00      1.000      1.550     5.000000
    3D  3  2  0.00      1.000      1.550     5.000000
    Pseudization used: troullier-martins
    <PP_INPUTFILE>
@input
title='V',
zed=23.,
rel=2,
config='[Ar] 4s2 4p0 3d3',
iswitch=3,
dft='PBE'
/
@inputp
lpaw=.false.,
pseudotype=3,
file_pseudopw='V.rel-pbe-spnl-rrkjus_psl.1.0.0.UPF',
author='ADC',
lloc=-1,
rcloc=1.5,
which_augfun='PSQ',
rmatch_augfun_nc=.true.,
nlcc=.true.,
new_core_ps=.true.,
rcore=0.8,
tm=.true.
/
6
3S  1  0  2.00  0.00  0.75  1.55  0.0
4S  2  0  2.00  0.00  0.75  1.60  0.0
3P  2  1  6.00  0.00  0.85  1.40  0.0
4P  3  1  0.00  7.00  0.85  1.40  0.0
3D  3  2  3.00  0.00  1.00  1.55  0.0
3D  3  2  0.00  5.00  1.00  1.55  0.0
    </PP_INPUTFILE>
  </PP_INFO>
    <!-- END OF HUMAN READABLE SECTION -->
  <PP_HEADER generated="Generated using 'atomic' code by A. Dal Corso  v.7.2" author="ADC" date="20Sep2023" comment="" element=" V" pseudo_type="USPP" relativistic="full" is_ultrasoft="true" is_paw="false" is_coulomb="false" has_so="true" has_wfc="false" has_gipaw="false" paw_as_gipaw="false" core_correction="true" functional="PBE" z_valence="13.000000000000000" total_psenergy="-144.93854442221181" wfc_cutoff="47.555519152726625" rho_cutoff="645.45699832191701" l_max="2" l_max_rho="4" l_local="-1" mesh_size="1181" number_of_wfc="6" number_of_proj="10"/>
  <PP_MESH mesh="1181" dx="1.2500000000000001E-002" xmin="-7.0000000000000000" rmax="100.00000000000000" zmesh="23.000000000000000">
    <PP_R>
   3.964704198063114E-05   4.014574037691401E-05   4.065071162680792E-05
   4.116203463309800E-05   4.167978929104434E-05   4.220405650086560E-05
   4.273491818037994E-05   4.327245727780484E-05   4.381675778471784E-05
   4.436790474918064E-05   4.492598428902770E-05   4.549108360532254E-05
   4.606329099598305E-05   4.664269586957812E-05   4.722938875929817E-05
   4.782346133710079E-05   4.842500642803492E-05   4.903411802474488E-05
   4.965089130215685E-05   5.027542263235034E-05   5.090780959961628E-05
   5.154815101570491E-05   5.219654693526525E-05   5.285309867147890E-05
   5.351790881189048E-05   5.419108123443693E-05   5.487272112367889E-05
   5.556293498723584E-05   5.626183067242818E-05   5.696951738312870E-05
   5.768610569682572E-05   5.841170758190117E-05   5.914643641512582E-05
   5.989040699937466E-05   6.064373558156516E-05   6.140653987082094E-05
   6.217893905686410E-05   6.296105382863894E-05   6.375300639316970E-05
   6.455492049465595E-05   6.536692143380749E-05   6.618913608742311E-05
   6.702169292821523E-05   6.786472204488401E-05   6.871835516244422E-05
   6.958272566280715E-05   7.045796860562203E-05   7.134422074937939E-05
   7.224162057277973E-05   7.315030829637136E-05   7.407042590445974E-05
   7.500211716729315E-05   7.594552766352695E-05   7.690080480297047E-05
   7.786809784962042E-05   7.884755794498326E-05   7.983933813169161E-05
   8.084359337741743E-05   8.186048059908596E-05   8.289015868739463E-05
   8.393278853163953E-05   8.498853304485509E-05   8.605755718926942E-05
   8.714002800207995E-05   8.823611462155365E-05   8.934598831345474E-05
   9.046982249780563E-05   9.160779277598409E-05   9.276007695816122E-05
   9.392685509108498E-05   9.510830948621240E-05   9.630462474819639E-05
   9.751598780373058E-05   9.874258793075682E-05   9.998461678804070E-05
   1.012422684451180E-04   1.025157394126188E-04   1.038052286729728E-04
   1.051109377115002E-04   1.064330705478949E-04   1.077718337681025E-04
   1.091274365565999E-04   1.105000907290808E-04   1.118900107655522E-04
   1.132974138438478E-04   1.147225198735618E-04   1.161655515304109E-04
   1.176267342910272E-04   1.191062964681899E-04   1.206044692464995E-04
   1.221214867185006E-04   1.236575859212595E-04   1.252130068734019E-04
   1.267879926126160E-04   1.283827892336281E-04   1.299976459266548E-04
   1.316328150163398E-04   1.332885520011801E-04   1.349651155934482E-04
   1.366627677596165E-04   1.383817737612899E-04   1.401224021966533E-04
   1.418849250424412E-04   1.436696176964340E-04   1.454767590204901E-04
   1.473066313841179E-04   1.491595207085971E-04   1.510357165116545E-04
   1.529355119527012E-04   1.548592038786404E-04   1.568070928702492E-04
   1.587794832891454E-04   1.607766833253449E-04   1.627990050454165E-04
   1.648467644412438E-04   1.669202814793984E-04   1.690198801511361E-04
   1.711458885230210E-04   1.732986387881866E-04   1.754784673182417E-04
   1.776857147158290E-04   1.799207258678451E-04   1.821838499993295E-04
   1.844754407280322E-04   1.867958561196670E-04   1.891454587438595E-04
   1.915246157308003E-04   1.939336988286088E-04   1.963730844614203E-04
   1.988431537882032E-04   2.013442927623150E-04   2.038768921918092E-04
   2.064413478004990E-04   2.090380602897907E-04   2.116674354012941E-04
   2.143298839802196E-04   2.170258220395747E-04   2.197556708251658E-04
   2.225198568814196E-04   2.253188121180315E-04   2.281529738774515E-04
   2.310227850032207E-04   2.339286939091661E-04   2.368711546494663E-04
   2.398506269895988E-04   2.428675764781783E-04   2.459224745197004E-04
   2.490157984481994E-04   2.521480316018322E-04   2.553196633984022E-04
   2.585311894118302E-04   2.617831114495895E-04   2.650759376311147E-04
   2.684101824671957E-04   2.717863669403722E-04   2.752050185863368E-04
   2.786666715763645E-04   2.821718668007777E-04   2.857211519534614E-04
   2.893150816174424E-04   2.929542173515420E-04   2.966391277781229E-04
   3.003703886719362E-04   3.041485830500874E-04   3.079743012631359E-04
   3.118481410873347E-04   3.157707078180388E-04   3.197426143642799E-04
   3.237644813445364E-04   3.278369371837077E-04   3.319606182113027E-04
   3.361361687608726E-04   3.403642412706858E-04   3.446454963856736E-04
   3.489806030606592E-04   3.533702386648788E-04   3.578150890878274E-04
   3.623158488464265E-04   3.668732211935448E-04   3.714879182278846E-04
   3.761606610052450E-04   3.808921796511925E-04   3.856832134751416E-04
   3.905345110858746E-04   3.954468305085141E-04   4.004209393029626E-04
   4.054576146838403E-04   4.105576436419222E-04   4.157218230671089E-04
   4.209509598729431E-04   4.262458711226882E-04   4.316073841570005E-04
   4.370363367231994E-04   4.425335771061682E-04   4.480999642609021E-04
   4.537363679467176E-04   4.594436688631589E-04   4.652227587876056E-04
   4.710745407146153E-04   4.769999289970212E-04   4.829998494887959E-04
   4.890752396897246E-04   4.952270488918860E-04   5.014562383279835E-04
   5.077637813215415E-04   5.141506634389833E-04   5.206178826436357E-04
   5.271664494516565E-04   5.337973870899320E-04   5.405117316559606E-04
   5.473105322797390E-04   5.541948512876986E-04   5.611657643686902E-04
   5.682243607420644E-04   5.753717433278670E-04   5.826090289191664E-04
   5.899373483565624E-04   5.973578467048758E-04   6.048716834320704E-04
   6.124800325904233E-04   6.201840829999677E-04   6.279850384342556E-04
   6.358841178084444E-04   6.438825553697565E-04   6.519816008903355E-04
   6.601825198625194E-04   6.684865936965840E-04   6.768951199209605E-04
   6.854094123849776E-04   6.940308014641575E-04   7.027606342680815E-04
   7.116002748508882E-04   7.205511044244023E-04   7.296145215739548E-04
   7.387919424769166E-04   7.480848011239731E-04   7.574945495431963E-04
   7.670226580269202E-04   7.766706153614798E-04   7.864399290598397E-04
   7.963321255971382E-04   8.063487506492124E-04   8.164913693341048E-04
   8.267615664566199E-04   8.371609467559535E-04   8.476911351564346E-04
   8.583537770214252E-04   8.691505384104100E-04   8.800831063393214E-04
   8.911531890441417E-04   9.023625162478149E-04   9.137128394305230E-04
   9.252059321033555E-04   9.368435900854248E-04   9.486276317844683E-04
   9.605598984809758E-04   9.726422546158957E-04   9.848765880819553E-04
   9.972648105186493E-04   1.009808857610938E-03   1.022510689391700E-03
   1.035372290547995E-03   1.048395670731168E-03   1.061582864870871E-03
   1.074935933493017E-03   1.088456963041746E-03   1.102148066205432E-03
   1.116011382246802E-03   1.130049077337189E-03   1.144263344895014E-03
   1.158656405928499E-03   1.173230509382717E-03   1.187987932490981E-03
   1.202930981130677E-03   1.218061990183557E-03   1.233383323900570E-03
   1.248897376271280E-03   1.264606571397934E-03   1.280513363874230E-03
   1.296620239168857E-03   1.312929714013848E-03   1.329444336797830E-03
   1.346166687964213E-03   1.363099380414386E-03   1.380245059915998E-03
   1.397606405516351E-03   1.415186129961019E-03   1.432986980117712E-03
   1.451011737405482E-03   1.469263218229329E-03   1.487744274420262E-03
   1.506457793680914E-03   1.525406700036741E-03   1.544593954292912E-03
   1.564022554496942E-03   1.583695536407141E-03   1.603615973966957E-03
   1.623786979785288E-03   1.644211705622830E-03   1.664893342884551E-03
   1.685835123118348E-03   1.707040318519992E-03   1.728512242444405E-03
   1.750254249923385E-03   1.772269738189836E-03   1.794562147208589E-03
   1.817134960213909E-03   1.839991704253753E-03   1.863135950740878E-03
   1.886571316010886E-03   1.910301461887279E-03   1.934330096253631E-03
   1.958660973632949E-03   1.983297895774322E-03   2.008244712246962E-03
   2.033505321041695E-03   2.059083669180041E-03   2.084983753330934E-03
   2.111209620435216E-03   2.137765368337982E-03   2.164655146428867E-03
   2.191883156290408E-03   2.219453652354540E-03   2.247370942567366E-03
   2.275639389062277E-03   2.304263408841557E-03   2.333247474466528E-03
   2.362596114756413E-03   2.392313915495968E-03   2.422405520152017E-03
   2.452875630599015E-03   2.483729007853708E-03   2.514970472819064E-03
   2.546604907037546E-03   2.578637253453857E-03   2.611072517187302E-03
   2.643915766313825E-03   2.677172132657924E-03   2.710846812594498E-03
   2.744945067860799E-03   2.779472226378590E-03   2.814433683086633E-03
   2.849834900783668E-03   2.885681410981984E-03   2.921978814771728E-03
   2.958732783696095E-03   2.995949060637504E-03   3.033633460714942E-03
   3.071791872192592E-03   3.110430257399879E-03   3.149554653663107E-03
   3.189171174248788E-03   3.229286009318866E-03   3.269905426897932E-03
   3.311035773852623E-03   3.352683476883335E-03   3.394855043528399E-03
   3.437557063180899E-03   3.480796208118286E-03   3.524579234544923E-03
   3.568912983647774E-03   3.613804382665329E-03   3.659260445970018E-03
   3.705288276164212E-03   3.751895065190022E-03   3.799088095453060E-03
   3.846874740960318E-03   3.895262468472379E-03   3.944258838670111E-03
   3.993871507336039E-03   4.044108226550587E-03   4.094976845903335E-03
   4.146485313719550E-03   4.198641678302125E-03   4.251454089189133E-03
   4.304930798427231E-03   4.359080161861033E-03   4.413910640438743E-03
   4.469430801534193E-03   4.525649320285506E-03   4.582574980950624E-03
   4.640216678279835E-03   4.698583418905622E-03   4.757684322749956E-03
   4.817528624449303E-03   4.878125674797553E-03   4.939484942207121E-03
   5.001616014188366E-03   5.064528598847697E-03   5.128232526404460E-03
   5.192737750726940E-03   5.258054350887682E-03   5.324192532738346E-03
   5.391162630504404E-03   5.458975108399883E-03   5.527640562262417E-03
   5.597169721208880E-03   5.667573449311813E-03   5.738862747296969E-03
   5.811048754262196E-03   5.884142749417944E-03   5.958156153849673E-03
   6.033100532302404E-03   6.108987594987747E-03   6.185829199413638E-03
   6.263637352237099E-03   6.342424211140322E-03   6.422202086730298E-03
   6.502983444462396E-03   6.584780906588116E-03   6.667607254127325E-03
   6.751475428865348E-03   6.836398535375115E-03   6.922389843064798E-03
   7.009462788251168E-03   7.097630976259061E-03   7.186908183547241E-03
   7.277308359860981E-03   7.368845630411748E-03   7.461534298084298E-03
   7.555388845671528E-03   7.650423938137457E-03   7.746654424908630E-03
   7.844095342194385E-03   7.942761915336294E-03   8.042669561187142E-03
   8.143833890519871E-03   8.246270710466753E-03   8.349996026989314E-03
   8.455026047379289E-03   8.561377182791046E-03   8.669066050805876E-03
   8.778109478028498E-03   8.888524502716265E-03   9.000328377441425E-03
   9.113538571786862E-03   9.228172775075786E-03   9.344248899135680E-03
   9.461785081097088E-03   9.580799686227565E-03   9.701311310801297E-03
   9.823338785004821E-03   9.946901175879239E-03   1.007201779029952E-02
   1.019870817799121E-02   1.032699213458514E-02   1.045688970471053E-02
   1.058842118512699E-02   1.072160712789594E-02   1.085646834359190E-02
   1.099302590455419E-02   1.113130114817957E-02   1.127131568025616E-02
   1.141309137833945E-02   1.155665039517073E-02   1.170201516213843E-02
   1.184920839278316E-02   1.199825308634666E-02   1.214917253136554E-02
   1.230199030931013E-02   1.245673029826913E-02   1.261341667668067E-02
   1.277207392711013E-02   1.293272684007568E-02   1.309540051792184E-02
   1.326012037874171E-02   1.342691216034869E-02   1.359580192429800E-02
   1.376681605995884E-02   1.393998128863786E-02   1.411532466775434E-02
   1.429287359506801E-02   1.447265581295998E-02   1.465469941276759E-02
   1.483903283917365E-02   1.502568489465107E-02   1.521468474396328E-02
   1.540606191872125E-02   1.559984632199790E-02   1.579606823300050E-02
   1.599475831180184E-02   1.619594760413100E-02   1.639966754622422E-02
   1.660594996973692E-02   1.681482710671746E-02   1.702633159464343E-02
   1.724049648152143E-02   1.745735523105073E-02   1.767694172785214E-02
   1.789929028276255E-02   1.812443563819602E-02   1.835241297357242E-02
   1.858325791081421E-02   1.881700651991250E-02   1.905369532456302E-02
   1.929336130787304E-02   1.953604191814007E-02   1.978177507470320E-02
   2.003059917386809E-02   2.028255309490646E-02   2.053767620613107E-02
   2.079600837104714E-02   2.105758995458099E-02   2.132246182938723E-02
   2.159066538223521E-02   2.186224252047569E-02   2.213723567858910E-02
   2.241568782481584E-02   2.269764246787028E-02   2.298314366373903E-02
   2.327223602256480E-02   2.356496471561684E-02   2.386137548234898E-02
   2.416151463754659E-02   2.446542907856331E-02   2.477316629264883E-02
   2.508477436436899E-02   2.540030198311896E-02   2.571979845073111E-02
   2.604331368917851E-02   2.637089824837537E-02   2.670260331407556E-02
   2.703848071587045E-02   2.737858293528741E-02   2.772296311399016E-02
   2.807167506208226E-02   2.842477326651511E-02   2.878231289960149E-02
   2.914434982763651E-02   2.951094061962673E-02   2.988214255612923E-02
   3.025801363820183E-02   3.063861259646581E-02   3.102399890028273E-02
   3.141423276704663E-02   3.180937517159312E-02   3.220948785572687E-02
   3.261463333786879E-02   3.302487492282474E-02   3.344027671167700E-02
   3.386090361180021E-02   3.428682134700334E-02   3.471809646779901E-02
   3.515479636180230E-02   3.559698926426011E-02   3.604474426871306E-02
   3.649813133779163E-02   3.695722131414776E-02   3.742208593152428E-02
   3.789279782596341E-02   3.836943054715632E-02   3.885205856993547E-02
   3.934075730591130E-02   3.983560311525557E-02   4.033667331863276E-02
   4.084404620928156E-02   4.135780106524844E-02   4.187801816177487E-02
   4.240477878384057E-02   4.293816523886444E-02   4.347826086956522E-02
   4.402515006698411E-02   4.457891828367084E-02   4.513965204703589E-02
   4.570743897287064E-02   4.628236777903736E-02   4.686452829933181E-02
   4.745401149751965E-02   4.805090948154992E-02   4.865531551794702E-02
   4.926732404638375E-02   4.988703069443794E-02   5.051453229253407E-02
   5.114992688907353E-02   5.179331376575474E-02   5.244479345308611E-02
   5.310446774609435E-02   5.377243972022979E-02   5.444881374747240E-02
   5.513369551264002E-02   5.582719202990180E-02   5.652941165949962E-02
   5.724046412467922E-02   5.796046052883493E-02   5.868951337286974E-02
   5.942773657277375E-02   6.017524547742398E-02   6.093215688660756E-02
   6.169858906927209E-02   6.247466178200545E-02   6.326049628774788E-02
   6.405621537473982E-02   6.486194337570743E-02   6.567780618729015E-02
   6.650393128971217E-02   6.734044776670144E-02   6.818748632565953E-02
   6.904517931808452E-02   6.991366076025148E-02   7.079306635415265E-02
   7.168353350870123E-02   7.258520136120188E-02   7.349821079909095E-02
   7.442270448195067E-02   7.535882686379984E-02   7.630672421566516E-02
   7.726654464843646E-02   7.823843813600910E-02   7.922255653871782E-02
   8.021905362706526E-02   8.122808510574879E-02   8.224980863799000E-02
   8.328438387016943E-02   8.433197245677196E-02   8.539273808564558E-02
   8.646684650357792E-02   8.755446554219466E-02   8.865576514418329E-02
   8.977091738984729E-02   9.090009652399378E-02   9.204347898315977E-02
   9.320124342318085E-02   9.437357074710621E-02   9.556064413346535E-02
   9.676264906488996E-02   9.797977335709603E-02   9.921220718823061E-02
   1.004601431285872E-01   1.017237761706953E-01   1.030033037597888E-01
   1.042989258246564E-01   1.056108448088821E-01   1.069392657024761E-01
   1.082843960739057E-01   1.096464461025282E-01   1.110256286114316E-01
   1.124221591006890E-01   1.138362557810305E-01   1.152681396079395E-01
   1.167180343161771E-01   1.181861664547411E-01   1.196727654222655E-01
   1.211780635028631E-01   1.227022959024217E-01   1.242457007853550E-01
   1.258085193118157E-01   1.273909956753785E-01   1.289933771411943E-01
   1.306159140846275E-01   1.322588600303768E-01   1.339224716920883E-01
   1.356070090124694E-01   1.373127352039030E-01   1.390399167895771E-01
   1.407888236451288E-01   1.425597290408119E-01   1.443529096841979E-01
   1.461686457634100E-01   1.480072209909051E-01   1.498689226478034E-01
   1.517540416287757E-01   1.536628724874989E-01   1.555957134826774E-01
   1.575528666246496E-01   1.595346377225760E-01   1.615413364322219E-01
   1.635732763043441E-01   1.656307748336810E-01   1.677141535085641E-01
   1.698237378611502E-01   1.719598575182860E-01   1.741228462530143E-01
   1.763130420367251E-01   1.785307870919657E-01   1.807764279459135E-01
   1.830503154845200E-01   1.853528050073401E-01   1.876842562830454E-01
   1.900450336056416E-01   1.924355058513886E-01   1.948560465364376E-01
   1.973070338751960E-01   1.997888508394213E-01   2.023018852180639E-01
   2.048465296778585E-01   2.074231818246784E-01   2.100322442656645E-01
   2.126741246721307E-01   2.153492358432658E-01   2.180579957706332E-01
   2.208008277034818E-01   2.235781602148822E-01   2.263904272686892E-01
   2.292380682873517E-01   2.321215282205730E-01   2.350412576148333E-01
   2.379977126837915E-01   2.409913553795663E-01   2.440226534649198E-01
   2.470920805863455E-01   2.502001163480753E-01   2.533472463870208E-01
   2.565339624486530E-01   2.597607624638401E-01   2.630281506266500E-01
   2.663366374731299E-01   2.696867399610814E-01   2.730789815508333E-01
   2.765138922870360E-01   2.799920088814810E-01   2.835138747969614E-01
   2.870800403321928E-01   2.906910627077944E-01   2.943475061533597E-01
   2.980499419956166E-01   3.017989487476972E-01   3.055951121995348E-01
   3.094390255093912E-01   3.133312892965420E-01   3.172725117351233E-01
   3.212633086491587E-01   3.253043036087863E-01   3.293961280276891E-01
   3.335394212617577E-01   3.377348307089904E-01   3.419830119106474E-01
   3.462846286536861E-01   3.506403530744728E-01   3.550508657638107E-01
   3.595168558732815E-01   3.640390212229246E-01   3.686180684102774E-01
   3.732547129207781E-01   3.779496792395653E-01   3.827037009646788E-01
   3.875175209216842E-01   3.923918912797448E-01   3.973275736691447E-01
   4.023253393002996E-01   4.073859690842581E-01   4.125102537547186E-01
   4.176989939915874E-01   4.229530005460820E-01   4.282730943674166E-01
   4.336601067310751E-01   4.391148793686980E-01   4.446382645996091E-01
   4.502311254639867E-01   4.558943358577204E-01   4.616287806689570E-01
   4.674353559163633E-01   4.733149688891369E-01   4.792685382887654E-01
   4.852969943725811E-01   4.914012790991126E-01   4.975823462752662E-01
   5.038411617053653E-01   5.101787033420527E-01   5.165959614391041E-01
   5.230939387061538E-01   5.296736504653684E-01   5.363361248100985E-01
   5.430824027655136E-01   5.499135384512706E-01   5.568305992462192E-01
   5.638346659551797E-01   5.709268329778273E-01   5.781082084796865E-01
   5.853799145652917E-01   5.927430874535115E-01   6.001988776550911E-01
   6.077484501524194E-01   6.153929845815569E-01   6.231336754165629E-01
   6.309717321561272E-01   6.389083795125626E-01   6.469448576031673E-01
   6.550824221439909E-01   6.633223446460513E-01   6.716659126140011E-01
   6.801144297473118E-01   6.886692161439754E-01   6.973316085067686E-01
   7.061029603521243E-01   7.149846422216114E-01   7.239780418960933E-01
   7.330845646125673E-01   7.423056332837331E-01   7.516426887203332E-01
   7.610971898562735E-01   7.706706139765932E-01   7.803644569482894E-01
   7.901802334540464E-01   8.001194772289162E-01   8.101837412999572E-01
   8.203745982289080E-01   8.306936403578986E-01   8.411424800582530E-01
   8.517227499824357E-01   8.624361033191449E-01   8.732842140516377E-01
   8.842687772192882E-01   8.953915091824364E-01   9.066541478905841E-01
   9.180584531539403E-01   9.296062069184062E-01   9.412992135440033E-01
   9.531393000868031E-01   9.651283165844202E-01   9.772681363450707E-01
   9.895606562402925E-01   1.002007797001330E+00   1.014611503519249E+00
   1.027373745148837E+00   1.040296516016311E+00   1.053381835330912E+00
   1.066631747700407E+00   1.080048323450559E+00   1.093633658948626E+00
   1.107389876930917E+00   1.121319126834481E+00   1.135423585132956E+00
   1.149705455676644E+00   1.164166970036876E+00   1.178810387854692E+00
   1.193637997193917E+00   1.208652114898682E+00   1.223855086955420E+00
   1.239249288859449E+00   1.254837125986132E+00   1.270621033966737E+00
   1.286603479068999E+00   1.302786958582479E+00   1.319174001208781E+00
   1.335767167456649E+00   1.352569050042072E+00   1.369582274293390E+00
   1.386809498561500E+00   1.404253414635249E+00   1.421916748162008E+00
   1.439802259073579E+00   1.457912742017433E+00   1.476251026793372E+00
   1.494819978795705E+00   1.513622499460959E+00   1.532661526721241E+00
   1.551940035463300E+00   1.571461037993345E+00   1.591227584507741E+00
   1.611242763569591E+00   1.631509702591348E+00   1.652031568323470E+00
   1.672811567349223E+00   1.693852946585740E+00   1.715158993791329E+00
   1.736733038079215E+00   1.758578450437714E+00   1.780698644256948E+00
   1.803097075862209E+00   1.825777245054000E+00   1.848742695654904E+00
   1.871997016063303E+00   1.895543839814066E+00   1.919386846146317E+00
   1.943529760578298E+00   1.967976355489512E+00   1.992730450710153E+00
   2.017795914117956E+00   2.043176662242580E+00   2.068876660877552E+00
   2.094899925699949E+00   2.121250522897846E+00   2.147932569805660E+00
   2.174950235547513E+00   2.202307741688638E+00   2.230009362895031E+00
   2.258059427601369E+00   2.286462318687324E+00   2.315222474162422E+00
   2.344344387859459E+00   2.373832610136706E+00   2.403691748588891E+00
   2.433926468767137E+00   2.464541494907994E+00   2.495541610671576E+00
   2.526931659889043E+00   2.558716547319455E+00   2.590901239416130E+00
   2.623490765102698E+00   2.656490216558842E+00   2.689904750015995E+00
   2.723739586562997E+00   2.758000012961884E+00   2.792691382473998E+00
   2.827819115696392E+00   2.863388701408856E+00   2.899405697431531E+00
   2.935875731493311E+00   2.972804502111227E+00   3.010197779480811E+00
   3.048061406377733E+00   3.086401299070736E+00   3.125223448246047E+00
   3.164533919943467E+00   3.204338856504167E+00   3.244644477530474E+00
   3.285457080857682E+00   3.326783043538082E+00   3.368628822837433E+00
   3.411000957243876E+00   3.453906067489623E+00   3.497350857585448E+00
   3.541342115868180E+00   3.585886716061440E+00   3.630991618349621E+00
   3.676663870465478E+00   3.722910608791333E+00   3.769739059474126E+00
   3.817156539554562E+00   3.865170458110362E+00   3.913788317413992E+00
   3.963017714104889E+00   4.012866340376430E+00   4.063341985177902E+00
   4.114452535431485E+00   4.166205977264647E+00   4.218610397257976E+00
   4.271673983708698E+00   4.325405027910172E+00   4.379811925447354E+00
   4.434903177508682E+00   4.490687392214385E+00   4.547173285961488E+00
   4.604369684785827E+00   4.662285525741068E+00   4.720929858295200E+00
   4.780311845744505E+00   4.840440766645320E+00   4.901326016263884E+00
   4.962977108044306E+00   5.025403675095116E+00   5.088615471694431E+00
   5.152622374814058E+00   5.217434385662850E+00   5.283061631249346E+00
   5.349514365964198E+00   5.416802973182411E+00   5.484937966885747E+00
   5.553929993305610E+00   5.623789832586477E+00   5.694528400470374E+00
   5.766156750002463E+00   5.838686073258066E+00   5.912127703091527E+00
   5.986493114906901E+00   6.061793928451094E+00   6.138041909629435E+00
   6.215248972344088E+00   6.293427180355701E+00   6.372588749168313E+00
   6.452746047938113E+00   6.533911601406130E+00   6.616098091855201E+00
   6.699318361091692E+00   6.783585412451961E+00   6.868912412834237E+00
   6.955312694755943E+00   7.042799758436884E+00   7.131387273908782E+00
   7.221089083151135E+00   7.311919202254150E+00   7.403891823608745E+00
   7.497021318124101E+00   7.591322237473237E+00   7.686809316366628E+00
   7.783497474854638E+00   7.881401820658755E+00   7.980537651532173E+00
   8.080920457650189E+00   8.182565924030456E+00   8.285489932983912E+00
   8.389708566596374E+00   8.495238109241345E+00   8.602095050124598E+00
   8.710296085860515E+00   8.819858123081081E+00   8.930798281077537E+00
   9.043133894475245E+00   9.156882515942380E+00   9.272061918932437E+00
   9.388690100461483E+00   9.506785283920182E+00   9.626365921921181E+00
   9.747450699182490E+00   9.870058535446875E+00   9.994208588438211E+00
   1.011992025685488E+01   1.024721318340081E+01   1.037610725785478E+01
   1.050662262017812E+01   1.063877966366176E+01   1.077259903811262E+01
   1.090810165308020E+01   1.104530868112379E+01   1.118424156112065E+01
   1.132492200161595E+01   1.146737198421475E+01   1.161161376701662E+01
   1.175766988809361E+01   1.190556316901176E+01   1.205531671839713E+01
   1.220695393554650E+01   1.236049851408352E+01   1.251597444566102E+01
   1.267340602370957E+01   1.283281784723358E+01   1.299423482465481E+01
   1.315768217770434E+01   1.332318544536368E+01   1.349077048785506E+01
   1.366046349068236E+01   1.383229096872252E+01   1.400627977036855E+01
   1.418245708172471E+01   1.436085043085430E+01   1.454148769208109E+01
   1.472439709034468E+01   1.490960720561062E+01   1.509714697733631E+01
   1.528704570899256E+01   1.547933307264257E+01   1.567403911357816E+01
   1.587119425501430E+01   1.607082930284301E+01   1.627297545044662E+01
   1.647766428357198E+01   1.668492778526575E+01   1.689479834087169E+01
   1.710730874309115E+01   1.732249219710678E+01   1.754038232577109E+01
   1.776101317486002E+01   1.798441921839256E+01   1.821063536401758E+01
   1.843969695846803E+01   1.867163979308408E+01   1.890650010940559E+01
   1.914431460483474E+01   1.938512043837033E+01   1.962895523641372E+01
   1.987585709864821E+01   2.012586460399216E+01   2.037901681662683E+01
   2.063535329210056E+01   2.089491408350910E+01   2.115773974775423E+01
   2.142387135188073E+01   2.169335047949313E+01   2.196621923725345E+01
   2.224252026146018E+01   2.252229672471052E+01   2.280559234264610E+01
   2.309245138078353E+01   2.338291866143119E+01   2.367703957069259E+01
   2.397486006555821E+01   2.427642668108635E+01   2.458178653767414E+01
   2.489098734842052E+01   2.520407742658115E+01   2.552110569311778E+01
   2.584212168434210E+01   2.616717555965575E+01   2.649631810938818E+01
   2.682960076273233E+01   2.716707559578091E+01   2.750879533966322E+01
   2.785481338878439E+01   2.820518380916865E+01   2.855996134690695E+01
   2.891920143671138E+01   2.928296021057693E+01   2.965129450655198E+01
   3.002426187761975E+01   3.040192060069069E+01   3.078432968570867E+01
   3.117154888487130E+01   3.156363870196614E+01   3.196066040182495E+01
   3.236267601989596E+01   3.276974837193745E+01   3.318194106383268E+01
   3.359931850152826E+01   3.402194590109811E+01   3.444988929893314E+01
   3.488321556205995E+01   3.532199239858887E+01   3.576628836829315E+01
   3.621617289332212E+01   3.667171626904798E+01   3.713298967505007E+01
   3.760006518623660E+01   3.807301578410635E+01   3.855191536815257E+01
   3.903683876740949E+01   3.952786175214488E+01   4.002506104569918E+01
   4.052851433647341E+01   4.103830029006868E+01   4.155449856157729E+01
   4.207718980802942E+01   4.260645570099584E+01   4.314237893934897E+01