
     Program BANDS v.7.1 starts on 20Sep2023 at 17:27:26 

     This program is part of the open-source Quantum ESPRESSO suite
     for quantum simulation of materials; please cite
         "P. Giannozzi et al., J. Phys.:Condens. Matter 21 395502 (2009);
         "P. Giannozzi et al., J. Phys.:Condens. Matter 29 465901 (2017);
         "P. Giannozzi et al., J. Chem. Phys. 152 154105 (2020);
          URL http://www.quantum-espresso.org", 
     in publications or presentations arising from this work. More details at
     http://www.quantum-espresso.org/quote

     Parallel version (MPI & OpenMP), running on      10 processor cores
     Number of MPI processes:                10
     Threads/MPI process:                     1

     MPI processes distributed on     1 nodes
     R & G space division:  proc/nbgrp/npool/nimage =      10
     12809 MiB available memory on the printing compute node when the environment starts


     Reading xml data from directory:

     ./work/pwscf.save/
     file S.pbe-n-kjpaw_psl.0.1.UPF: wavefunction(s)  3P renormalized
     file Fe.pbe-spn-kjpaw_psl.0.2.1.UPF: wavefunction(s)  3D renormalized

     IMPORTANT: XC functional enforced from input :
     Exchange-correlation= PBE
                           (   1   4   3   4   0   0   0)
     Any further DFT definition will be discarded
     Please, verify this is what you really want


     Parallelization info
     --------------------
     sticks:   dense  smooth     PW     G-vecs:    dense   smooth      PW
     Min         648     210     59                39186     7322    1105
     Max         649     212     60                39189     7323    1110
     Sum        6485    2109    593               391871    73223   11067

     Using Slab Decomposition


     Check: negative core charge=   -0.000009
     Reading collected, re-writing distributed wavefunctions
     high-symmetry point:  0.5000 0.5000 0.5000   x coordinate   0.0000
     high-symmetry point:  0.0000 0.0000 0.0000   x coordinate   0.8660
     high-symmetry point:  0.5000 0.0000 0.0000   x coordinate   1.3660
     high-symmetry point:  0.5000 0.5000 0.0000   x coordinate   1.8660
     high-symmetry point:  0.0000 0.0000 0.0000   x coordinate   2.5731

     Plottable bands (eV) written to file bands.out.gnu
     Bands written to file bands.out

 **************************************************************************

                    xk=(   0.50000,   0.50000,   0.50000  )

     zone border point and non-symmorphic group 
     symmetry decomposition not available

 **************************************************************************

 **************************************************************************

                    xk=(   0.47500,   0.47500,   0.47500  )

     point group C_3 (3)    
     there are  3 classes
     the character table:

       E     C3    C3^2 
A      1.00  1.00  1.00
E      1.00 -0.50 -0.50
E*     1.00 -0.50 -0.50
     imaginary part
A      0.00  0.00  0.00
E      0.00  0.87 -0.87
E*     0.00 -0.87  0.87

     the symmetry operations in each class and the name of the first element:

     E        1
                                                                 
     C3       3
                                                                 
     C3^2     2
                                                                 

     Band symmetry, C_3 (3)     point group:

     e(  1 -  4) =    -73.46422  eV     4   -->   2 A              
     e(  1 -  4) =    -73.46422  eV     4   --> E              
     e(  1 -  4) =    -73.46422  eV     4   --> E*             
     e(  5 -  8) =    -39.64111  eV     4   -->   2 A              
     e(  5 -  8) =    -39.64111  eV     4   --> E              
     e(  5 -  8) =    -39.64111  eV     4   --> E*             
     e(  9 - 10) =    -39.63816  eV     2   --> E              
     e(  9 - 10) =    -39.63816  eV     2   --> E*             
     e( 11 - 12) =    -39.63806  eV     2   --> E              
     e( 11 - 12) =    -39.63806  eV     2   --> E*             
     e( 13 - 16) =    -39.38637  eV     4   -->   2 A              
     e( 13 - 16) =    -39.38637  eV     4   --> E              
     e( 13 - 16) =    -39.38637  eV     4   --> E*             
     e( 17 - 17) =     -2.41378  eV     1   --> A              
     e( 18 - 18) =     -2.39298  eV     1   --> A              
     e( 19 - 20) =     -2.39245  eV     2   --> E              
     e( 19 - 20) =     -2.39245  eV     2   --> E*             
     e( 21 - 22) =      0.19390  eV     2   --> E              
     e( 21 - 22) =      0.19390  eV     2   --> E*             
     e( 23 - 23) =      0.19904  eV     1   --> A              
     e( 24 - 24) =      0.20816  eV     1   --> A              
     e( 25 - 25) =      6.28438  eV     1   --> A              
     e( 26 - 27) =      6.32878  eV     2   --> E              
     e( 26 - 27) =      6.32878  eV     2   --> E*             
     e( 28 - 28) =      6.33592  eV     1   --> A              
     e( 29 - 30) =      7.41406  eV     2   --> E              
     e( 29 - 30) =      7.41406  eV     2   --> E*             
     e( 31 - 31) =      7.44136  eV     1   --> A              
     e( 32 - 32) =      7.50501  eV     1   --> A              
     e( 33 - 34) =      8.28991  eV     2   --> E              
     e( 33 - 34) =      8.28991  eV     2   --> E*             
     e( 35 - 36) =      8.32051  eV     2   --> E              
     e( 35 - 36) =      8.32051  eV     2   --> E*             
     e( 37 - 38) =     10.49829  eV     2   --> E              
     e( 37 - 38) =     10.49829  eV     2   --> E*             
     e( 39 - 40) =     10.52188  eV     2   --> E              
     e( 39 - 40) =     10.52188  eV     2   --> E*             
     e( 41 - 41) =     10.78490  eV     1   --> A              
     e( 42 - 43) =     10.82760  eV     2   --> E              
     e( 42 - 43) =     10.82760  eV     2   --> E*             
     e( 44 - 44) =     10.83438  eV     1   --> A              
     e( 45 - 45) =     11.63199  eV     1   --> A              
     e( 46 - 47) =     11.64063  eV     2   --> E              
     e( 46 - 47) =     11.64063  eV     2   --> E*             
     e( 48 - 48) =     11.67068  eV     1   --> A              
     e( 49 - 50) =     11.78102  eV     2   --> E              
     e( 49 - 50) =     11.78102  eV     2   --> E*             
     e( 51 - 52) =     11.79558  eV     2   --> E              
     e( 51 - 52) =     11.79558  eV     2   --> E*             
     e( 53 - 53) =     12.42567  eV     1   --> A              
     e( 54 - 55) =     12.43312  eV     2   --> E              
     e( 54 - 55) =     12.43312  eV     2   --> E*             
     e( 56 - 56) =     12.43381  eV     1   --> A              
     e( 57 - 57) =     14.25809  eV     1   --> A              
     e( 58 - 58) =     14.27143  eV     1   --> A              
     e( 59 - 60) =     14.27159  eV     2   --> E              
     e( 59 - 60) =     14.27159  eV     2   --> E*             
     e( 61 - 62) =     15.22544  eV     2   --> E              
     e( 61 - 62) =     15.22544  eV     2   --> E*             
     e( 63 - 64) =     15.23773  eV     2   --> E              
     e( 63 - 64) =     15.23773  eV     2   --> E*             
     e( 65 - 65) =     16.13761  eV     1   --> A              
     e( 66 - 66) =     16.14291  eV     1   --> A              
     e( 67 - 68) =     16.15517  eV     2   --> E              
     e( 67 - 68) =     16.15517  eV     2   --> E*             
     e( 69 - 69) =     19.85391  eV     1   --> A              
     e( 70 - 71) =     19.88903  eV     2   --> E              
     e( 70 - 71) =     19.88903  eV     2   --> E*             
     e( 72 - 72) =     19.95774  eV     1   --> A              
     e( 73 - 73) =     20.86641  eV     1   --> A              
     e( 74 - 75) =     20.91206  eV     2   --> E              
     e( 74 - 75) =     20.91206  eV     2   --> E*             
     e( 76 - 76) =     20.97606  eV     1   --> A              
     e( 77 - 78) =     21.35095  eV     2   --> E              
     e( 77 - 78) =     21.35095  eV     2   --> E*             
     e( 79 - 80) =     21.38183  eV     2   --> E              
     e( 79 - 80) =     21.38183  eV     2   --> E*             
     e( 81 - 82) =     21.88448  eV     2   --> E              
     e( 81 - 82) =     21.88448  eV     2   --> E*             
     e( 83 - 84) =     21.92255  eV     2   --> E              
     e( 83 - 84) =     21.92255  eV     2   --> E*             
     e( 85 - 85) =     23.03506  eV     1   --> A              
     e( 86 - 86) =     23.07082  eV     1   --> A              
     e( 87 - 88) =     23.07206  eV     2   --> E              
     e( 87 - 88) =     23.07206  eV     2   --> E*             
     e( 89 - 89) =     25.43179  eV     1   --> A              
     e( 90 - 90) =     25.45996  eV     1   --> A              
     e( 91 - 92) =     25.48853  eV     2   --> E              
     e( 91 - 92) =     25.48853  eV     2   --> E*             
     e( 93 - 93) =     27.58403  eV     1   --> A              
     e( 94 - 95) =     27.74144  eV     2   --> E              
     e( 94 - 95) =     27.74144  eV     2   --> E*             
     e( 96 - 96) =     27.81582  eV     1   --> A              
     e( 97 - 97) =     28.60304  eV     1   --> A              
     e( 98 - 99) =     28.65256  eV     2   --> E              
     e( 98 - 99) =     28.65256  eV     2   --> E*             
     e(100 -100) =     28.86459  eV     1   --> A              
     e(101 -102) =     29.53989  eV     2   --> E              
     e(101 -102) =     29.53989  eV     2   --> E*             
     e(103 -104) =     29.59117  eV     2   --> E              
     e(103 -104) =     29.59117  eV     2   --> E*             
     e(105 -106) =     29.93588  eV     2   --> E              
     e(105 -106) =     29.93588  eV     2   --> E*             
     e(107 -108) =     29.97499  eV     2   --> E              
     e(107 -108) =     29.97499  eV     2   --> E*             
     e(109 -109) =     32.53131  eV     1   --> A              
     e(110 -111) =     32.61904  eV     2   --> E              
     e(110 -111) =     32.61904  eV     2   --> E*             
     e(112 -112) =     32.63708  eV     1   --> A              
     e(113 -113) =     33.02110  eV     1   --> A              
     e(114 -114) =     33.17146  eV     1   -->   ?

 **************************************************************************

 **************************************************************************

                    xk=(   0.45000,   0.45000,   0.45000  )

     Band symmetry, C_3 (3)     point group:

     e(  1 -  4) =    -73.46422  eV     4   -->   2 A              
     e(  1 -  4) =    -73.46422  eV     4   --> E              
     e(  1 -  4) =    -73.46422  eV     4   --> E*             
     e(  5 -  8) =    -39.64112  eV     4   -->   2 A              
     e(  5 -  8) =    -39.64112  eV     4   --> E              
     e(  5 -  8) =    -39.64112  eV     4   --> E*             
     e(  9 - 12) =    -39.63824  eV     4   -->   2 E              
     e(  9 - 12) =    -39.63824  eV     4   -->   2 E*             
     e( 13 - 16) =    -39.38639  eV     4   -->   2 A              
     e( 13 - 16) =    -39.38639  eV     4   --> E              
     e( 13 - 16) =    -39.38639  eV     4   --> E*             
     e( 17 - 17) =     -2.47156  eV     1   --> A              
     e( 18 - 18) =     -2.39074  eV     1   --> A              
     e( 19 - 20) =     -2.38869  eV     2   --> E              
     e( 19 - 20) =     -2.38869  eV     2   --> E*             
     e( 21 - 22) =      0.20813  eV     2   --> E              
     e( 21 - 22) =      0.20813  eV     2   --> E*             
     e( 23 - 23) =      0.22874  eV     1   --> A              
     e( 24 - 24) =      0.26245  eV     1   --> A              
     e( 25 - 25) =      6.16042  eV     1   --> A              
     e( 26 - 27) =      6.30880  eV     2   --> E              
     e( 26 - 27) =      6.30880  eV     2   --> E*             
     e( 28 - 28) =      6.33834  eV     1   --> A              
     e( 29 - 30) =      7.34880  eV     2   --> E              
     e( 29 - 30) =      7.34880  eV     2   --> E*             
     e( 31 - 31) =      7.44383  eV     1   --> A              
     e( 32 - 32) =      7.67021  eV     1   --> A              
     e( 33 - 34) =      8.28454  eV     2   --> E              
     e( 33 - 34) =      8.28454  eV     2   --> E*             
     e( 35 - 36) =      8.39211  eV     2   --> E              
     e( 35 - 36) =      8.39211  eV     2   --> E*             
     e( 37 - 38) =     10.40498  eV     2   --> E              
     e( 37 - 38) =     10.40498  eV     2   --> E*             
     e( 39 - 40) =     10.48685  eV     2   --> E              
     e( 39 - 40) =     10.48685  eV     2   --> E*             
     e( 41 - 41) =     10.63172  eV     1   --> A              
     e( 42 - 43) =     10.78468  eV     2   --> E              
     e( 42 - 43) =     10.78468  eV     2   --> E*             
     e( 44 - 44) =     10.79492  eV     1   --> A              
     e( 45 - 45) =     11.66497  eV     1   --> A              
     e( 46 - 47) =     11.68384  eV     2   --> E              
     e( 46 - 47) =     11.68384  eV     2   --> E*             
     e( 48 - 48) =     11.78483  eV     1   --> A              
     e( 49 - 50) =     11.81189  eV     2   --> E              
     e( 49 - 50) =     11.81189  eV     2   --> E*             
     e( 51 - 52) =     11.86504  eV     2   --> E              
     e( 51 - 52) =     11.86504  eV     2   --> E*             
     e( 53 - 53) =     12.42140  eV     1   --> A              
     e( 54 - 55) =     12.45076  eV     2   --> E              
     e( 54 - 55) =     12.45076  eV     2   --> E*             
     e( 56 - 56) =     12.45400  eV     1   --> A              
     e( 57 - 57) =     14.25434  eV     1   --> A              
     e( 58 - 58) =     14.30702  eV     1   --> A              
     e( 59 - 60) =     14.30764  eV     2   --> E              
     e( 59 - 60) =     14.30764  eV     2   --> E*             
     e( 61 - 62) =     15.20337  eV     2   --> E              
     e( 61 - 62) =     15.20337  eV     2   --> E*             
     e( 63 - 64) =     15.25263  eV     2   --> E              
     e( 63 - 64) =     15.25263  eV     2   --> E*             
     e( 65 - 65) =     16.08377  eV     1   --> A              
     e( 66 - 66) =     16.10465  eV     1   --> A              
     e( 67 - 68) =     16.15289  eV     2   --> E              
     e( 67 - 68) =     16.15289  eV     2   --> E*             
     e( 69 - 69) =     19.68740  eV     1   --> A              
     e( 70 - 71) =     19.78239  eV     2   --> E              
     e( 70 - 71) =     19.78239  eV     2   --> E*             
     e( 72 - 72) =     20.03362  eV     1   --> A              
     e( 73 - 73) =     20.80628  eV     1   --> A              
     e( 74 - 75) =     20.95673  eV     2   --> E              
     e( 74 - 75) =     20.95673  eV     2   --> E*             
     e( 76 - 76) =     21.16843  eV     1   --> A              
     e( 77 - 78) =     21.24098  eV     2   --> E              
     e( 77 - 78) =     21.24098  eV     2   --> E*             
     e( 79 - 80) =     21.36770  eV     2   --> E              
     e( 79 - 80) =     21.36770  eV     2   --> E*             
     e( 81 - 82) =     21.90948  eV     2   --> E              
     e( 81 - 82) =     21.90948  eV     2   --> E*             
     e( 83 - 84) =     22.04228  eV     2   --> E              
     e( 83 - 84) =     22.04228  eV     2   --> E*             
     e( 85 - 85) =     23.01600  eV     1   --> A              
     e( 86 - 86) =     23.15858  eV     1   --> A              
     e( 87 - 88) =     23.16196  eV     2   --> E              
     e( 87 - 88) =     23.16196  eV     2   --> E*             
     e( 89 - 89) =     25.43392  eV     1   --> A              
     e( 90 - 90) =     25.54078  eV     1   --> A              
     e( 91 - 92) =     25.64650  eV     2   --> E              
     e( 91 - 92) =     25.64650  eV     2   --> E*             
     e( 93 - 93) =     27.17039  eV     1   --> A              
     e( 94 - 95) =     27.56389  eV     2   --> E              
     e( 94 - 95) =     27.56389  eV     2   --> E*             
     e( 96 - 96) =     27.80731  eV     1   --> A              
     e( 97 - 97) =     28.52050  eV     1   --> A              
     e( 98 - 99) =     28.63611  eV     2   --> E              
     e( 98 - 99) =     28.63611  eV     2   --> E*             
     e(100 -100) =     29.27155  eV     1   --> A              
     e(101 -102) =     29.28707  eV     2   --> E              
     e(101 -102) =     29.28707  eV     2   --> E*             
     e(103 -104) =     29.51365  eV     2   --> E              
     e(103 -104) =     29.51365  eV     2   --> E*             
     e(105 -106) =     30.03435  eV     2   --> E              
     e(105 -106) =     30.03435  eV     2   --> E*             
     e(107 -108) =     30.18047  eV     2   --> E              
     e(107 -108) =     30.18047  eV     2   --> E*             
     e(109 -109) =     32.28604  eV     1   --> A              
     e(110 -110) =     32.50056  eV     1   --> A              
     e(111 -112) =     32.54203  eV     2   --> E              
     e(111 -112) =     32.54203  eV     2   --> E*             
     e(113 -113) =     32.96981  eV     1   --> A              
     e(114 -114) =     33.39706  eV     1   --> A              

 **************************************************************************

 **************************************************************************

                    xk=(   0.42500,   0.42500,   0.42500  )

     Band symmetry, C_3 (3)     point group:

     e(  1 -  4) =    -73.46422  eV     4   -->   2 A              
     e(  1 -  4) =    -73.46422  eV     4   --> E              
     e(  1 -  4) =    -73.46422  eV     4   --> E*             
     e(  5 -  5) =    -39.64112  eV     1   --> A              
     e(  6 -  8) =    -39.64101  eV     3   --> A              
     e(  6 -  8) =    -39.64101  eV     3   --> E              
     e(  6 -  8) =    -39.64101  eV     3   --> E*             
     e(  9 - 10) =    -39.63829  eV     2   --> E              
     e(  9 - 10) =    -39.63829  eV     2   --> E*             
     e( 11 - 12) =    -39.63815  eV     2   --> E              
     e( 11 - 12) =    -39.63815  eV     2   --> E*             
     e( 13 - 16) =    -39.38639  eV     4   -->   2 A              
     e( 13 - 16) =    -39.38639  eV     4   --> E              
     e( 13 - 16) =    -39.38639  eV     4   --> E*             
     e( 17 - 17) =     -2.56068  eV     1   --> A              
     e( 18 - 18) =     -2.38672  eV     1   --> A              
     e( 19 - 20) =     -2.38229  eV     2   --> E              
     e( 19 - 20) =     -2.38229  eV     2   --> E*             
     e( 21 - 22) =      0.23103  eV     2   --> E              
     e( 21 - 22) =      0.23103  eV     2   --> E*             
     e( 23 - 23) =      0.27750  eV     1   --> A              
     e( 24 - 24) =      0.34407  eV     1   --> A              
     e( 25 - 25) =      6.00870  eV     1   --> A              
     e( 26 - 27) =      6.27403  eV     2   --> E              
     e( 26 - 27) =      6.27403  eV     2   --> E*             
     e( 28 - 28) =      6.34359  eV     1   --> A              
     e( 29 - 30) =      7.27023  eV     2   --> E              
     e( 29 - 30) =      7.27023  eV     2   --> E*             
     e( 31 - 31) =      7.44661  eV     1   --> A              
     e( 32 - 32) =      7.89059  eV     1   --> A              
     e( 33 - 34) =      8.27596  eV     2   --> E              
     e( 33 - 34) =      8.27596  eV     2   --> E*             
     e( 35 - 36) =      8.47765  eV     2   --> E              
     e( 35 - 36) =      8.47765  eV     2   --> E*             
     e( 37 - 38) =     10.27464  eV     2   --> E              
     e( 37 - 38) =     10.27464  eV     2   --> E*             
     e( 39 - 40) =     10.42266  eV     2   --> E              
     e( 39 - 40) =     10.42266  eV     2   --> E*             
     e( 41 - 41) =     10.43935  eV     1   --> A              
     e( 42 - 42) =     10.73594  eV     1   --> A              
     e( 43 - 44) =     10.74971  eV     2   --> E              
     e( 43 - 44) =     10.74971  eV     2   --> E*             
     e( 45 - 45) =     11.71259  eV     1   --> A              
     e( 46 - 47) =     11.72772  eV     2   --> E              
     e( 46 - 47) =     11.72772  eV     2   --> E*             
     e( 48 - 49) =     11.85947  eV     2   --> E              
     e( 48 - 49) =     11.85947  eV     2   --> E*             
     e( 50 - 50) =     11.91127  eV     1   --> A              
     e( 51 - 52) =     11.96188  eV     2   --> E              
     e( 51 - 52) =     11.96188  eV     2   --> E*             
     e( 53 - 53) =     12.41438  eV     1   --> A              
     e( 54 - 55) =     12.47837  eV     2   --> E              
     e( 54 - 55) =     12.47837  eV     2   --> E*             
     e( 56 - 56) =     12.48733  eV     1   --> A              
     e( 57 - 57) =     14.24856  eV     1   --> A              
     e( 58 - 58) =     14.36431  eV     1   --> A              
     e( 59 - 60) =     14.36584  eV     2   --> E              
     e( 59 - 60) =     14.36584  eV     2   --> E*             
     e( 61 - 62) =     15.16582  eV     2   --> E              
     e( 61 - 62) =     15.16582  eV     2   --> E*             
     e( 63 - 64) =     15.27707  eV     2   --> E              
     e( 63 - 64) =     15.27707  eV     2   --> E*             
     e( 65 - 65) =     15.99835  eV     1   --> A              
     e( 66 - 66) =     16.04424  eV     1   --> A              
     e( 67 - 68) =     16.14963  eV     2   --> E              
     e( 67 - 68) =     16.14963  eV     2   --> E*             
     e( 69 - 69) =     19.51561  eV     1   --> A              
     e( 70 - 71) =     19.65242  eV     2   --> E              
     e( 70 - 71) =     19.65242  eV     2   --> E*             
     e( 72 - 72) =     20.15652  eV     1   --> A              
     e( 73 - 73) =     20.71561  eV     1   --> A              
     e( 74 - 75) =     20.96372  eV     2   --> E              
     e( 74 - 75) =     20.96372  eV     2   --> E*             
     e( 76 - 77) =     21.11097  eV     2   --> E              
     e( 76 - 77) =     21.11097  eV     2   --> E*             
     e( 78 - 78) =     21.36850  eV     1   --> A              
     e( 79 - 80) =     21.38643  eV     2   --> E              
     e( 79 - 80) =     21.38643  eV     2   --> E*             
     e( 81 - 82) =     21.94627  eV     2   --> E              
     e( 81 - 82) =     21.94627  eV     2   --> E*             
     e( 83 - 84) =     22.19962  eV     2   --> E              
     e( 83 - 84) =     22.19962  eV     2   --> E*             
     e( 85 - 85) =     22.98650  eV     1   --> A              
     e( 86 - 86) =     23.30614  eV     1   --> A              
     e( 87 - 88) =     23.30712  eV     2   --> E              
     e( 87 - 88) =     23.30712  eV     2   --> E*             
     e( 89 - 89) =     25.43737  eV     1   --> A              
     e( 90 - 90) =     25.65794  eV     1   --> A              
     e( 91 - 92) =     25.86444  eV     2   --> E              
     e( 91 - 92) =     25.86444  eV     2   --> E*             
     e( 93 - 93) =     26.75505  eV     1   --> A              
     e( 94 - 95) =     27.36143  eV     2   --> E              
     e( 94 - 95) =     27.36143  eV     2   --> E*             
     e( 96 - 96) =     27.78513  eV     1   --> A              
     e( 97 - 97) =     28.40235  eV     1   --> A              
     e( 98 - 99) =     28.50927  eV     2   --> E              
     e( 98 - 99) =     28.50927  eV     2   --> E*             
     e(100 -101) =     29.01850  eV     2   --> E              
     e(100 -101) =     29.01850  eV     2   --> E*             
     e(102 -103) =     29.52355  eV     2   --> E              
     e(102 -103) =     29.52355  eV     2   --> E*             
     e(104 -104) =     29.66928  eV     1   --> A              
     e(105 -106) =     30.09121  eV     2   --> E              
     e(105 -106) =     30.09121  eV     2   --> E*             
     e(107 -108) =     30.38868  eV     2   --> E              
     e(107 -108) =     30.38868  eV     2   --> E*             
     e(109 -109) =     32.04705  eV     1   --> A              
     e(110 -110) =     32.31272  eV     1   --> A              
     e(111 -112) =     32.51242  eV     2   --> E              
     e(111 -112) =     32.51242  eV     2   --> E*             
     e(113 -113) =     32.87824  eV     1   --> A              
     e(114 -114) =     33.57793  eV     1   --> A              

 **************************************************************************

 **************************************************************************

                    xk=(   0.40000,   0.40000,   0.40000  )

     Band symmetry, C_3 (3)     point group:

     e(  1 -  4) =    -73.46422  eV     4   -->   2 A              
     e(  1 -  4) =    -73.46422  eV     4   --> E              
     e(  1 -  4) =    -73.46422  eV     4   --> E*             
     e(  5 -  5) =    -39.64112  eV     1   --> A              
     e(  6 -  8) =    -39.64089  eV     3   --> A              
     e(  6 -  8) =    -39.64089  eV     3   --> E              
     e(  6 -  8) =    -39.64089  eV     3   --> E*             
     e(  9 - 10) =    -39.63830  eV     2   --> E              
     e(  9 - 10) =    -39.63830  eV     2   --> E*             
     e( 11 - 12) =    -39.63814  eV     2   --> E              
     e( 11 - 12) =    -39.63814  eV     2   --> E*             
     e( 13 - 16) =    -39.38638  eV     4   -->   2 A              
     e( 13 - 16) =    -39.38638  eV     4   --> E              
     e( 13 - 16) =    -39.38638  eV     4   --> E*             
     e( 17 - 17) =     -2.67306  eV     1   --> A              
     e( 18 - 18) =     -2.38052  eV     1   --> A              
     e( 19 - 20) =     -2.37310  eV     2   --> E              
     e( 19 - 20) =     -2.37310  eV     2   --> E*             
     e( 21 - 22) =      0.26136  eV     2   --> E              
     e( 21 - 22) =      0.26136  eV     2   --> E*             
     e( 23 - 23) =      0.34426  eV     1   --> A              
     e( 24 - 24) =      0.44253  eV     1   --> A              
     e( 25 - 25) =      5.85786  eV     1   --> A              
     e( 26 - 27) =      6.22388  eV     2   --> E              
     e( 26 - 27) =      6.22388  eV     2   --> E*             
     e( 28 - 28) =      6.35339  eV     1   --> A              
     e( 29 - 30) =      7.19778  eV     2   --> E              
     e( 29 - 30) =      7.19778  eV     2   --> E*             
     e( 31 - 31) =      7.44784  eV     1   --> A              
     e( 32 - 32) =      8.13715  eV     1   --> A              
     e( 33 - 34) =      8.26442  eV     2   --> E              
     e( 33 - 34) =      8.26442  eV     2   --> E*             
     e( 35 - 36) =      8.55129  eV     2   --> E              
     e( 35 - 36) =      8.55129  eV     2   --> E*             
     e( 37 - 38) =     10.13203  eV     2   --> E              
     e( 37 - 38) =     10.13203  eV     2   --> E*             
     e( 39 - 39) =     10.23448  eV     1   --> A              
     e( 40 - 41) =     10.33583  eV     2   --> E              
     e( 40 - 41) =     10.33583  eV     2   --> E*             
     e( 42 - 42) =     10.66318  eV     1   --> A              
     e( 43 - 44) =     10.73245  eV     2   --> E              
     e( 43 - 44) =     10.73245  eV     2   --> E*             
     e( 45 - 45) =     11.76822  eV     1   --> A              
     e( 46 - 47) =     11.77011  eV     2   --> E              
     e( 46 - 47) =     11.77011  eV     2   --> E*             
     e( 48 - 49) =     11.91359  eV     2   --> E              
     e( 48 - 49) =     11.91359  eV     2   --> E*             
     e( 50 - 50) =     12.02305  eV     1   --> A              
     e( 51 - 52) =     12.06518  eV     2   --> E              
     e( 51 - 52) =     12.06518  eV     2   --> E*             
     e( 53 - 53) =     12.40571  eV     1   --> A              
     e( 54 - 55) =     12.51264  eV     2   --> E              
     e( 54 - 55) =     12.51264  eV     2   --> E*             
     e( 56 - 56) =     12.53181  eV     1   --> A              
     e( 57 - 57) =     14.24132  eV     1   --> A              
     e( 58 - 58) =     14.43945  eV     1   --> A              
     e( 59 - 60) =     14.44325  eV     2   --> E              
     e( 59 - 60) =     14.44325  eV     2   --> E*             
     e( 61 - 62) =     15.11201  eV     2   --> E              
     e( 61 - 62) =     15.11201  eV     2   --> E*             
     e( 63 - 64) =     15.31061  eV     2   --> E              
     e( 63 - 64) =     15.31061  eV     2   --> E*             
     e( 65 - 65) =     15.88787  eV     1   --> A              
     e( 66 - 66) =     15.96775  eV     1   --> A              
     e( 67 - 68) =     16.14654  eV     2   --> E              
     e( 67 - 68) =     16.14654  eV     2   --> E*             
     e( 69 - 69) =     19.37576  eV     1   --> A              
     e( 70 - 71) =     19.52897  eV     2   --> E              
     e( 70 - 71) =     19.52897  eV     2   --> E*             
     e( 72 - 72) =     20.32098  eV     1   --> A              
     e( 73 - 73) =     20.60525  eV     1   --> A              
     e( 74 - 75) =     20.87646  eV     2   --> E              
     e( 74 - 75) =     20.87646  eV     2   --> E*             
     e( 76 - 77) =     21.03741  eV     2   --> E              
     e( 76 - 77) =     21.03741  eV     2   --> E*             
     e( 78 - 79) =     21.43268  eV     2   --> E              
     e( 78 - 79) =     21.43268  eV     2   --> E*             
     e( 80 - 80) =     21.52586  eV     1   --> A              
     e( 81 - 82) =     22.00091  eV     2   --> E              
     e( 81 - 82) =     22.00091  eV     2   --> E*             
     e( 83 - 84) =     22.37615  eV     2   --> E              
     e( 83 - 84) =     22.37615  eV     2   --> E*             
     e( 85 - 85) =     22.94494  eV     1   --> A              
     e( 86 - 87) =     23.49584  eV     2   --> E              
     e( 86 - 87) =     23.49584  eV     2   --> E*             
     e( 88 - 88) =     23.50825  eV     1   --> A              
     e( 89 - 89) =     25.44157  eV     1   --> A              
     e( 90 - 90) =     25.79030  eV     1   --> A              
     e( 91 - 92) =     26.07491  eV     2   --> E              
     e( 91 - 92) =     26.07491  eV     2   --> E*             
     e( 93 - 93) =     26.38982  eV     1   --> A              
     e( 94 - 95) =     27.19298  eV     2   --> E              
     e( 94 - 95) =     27.19298  eV     2   --> E*             
     e( 96 - 96) =     27.73043  eV     1   --> A              
     e( 97 - 97) =     28.28352  eV     1   --> A              
     e( 98 - 99) =     28.31011  eV     2   --> E              
     e( 98 - 99) =     28.31011  eV     2   --> E*             
     e(100 -101) =     28.76302  eV     2   --> E              
     e(100 -101) =     28.76302  eV     2   --> E*             
     e(102 -103) =     29.53015  eV     2   --> E              
     e(102 -103) =     29.53015  eV     2   --> E*             
     e(104 -104) =     29.98921  eV     1   --> A              
     e(105 -106) =     30.14562  eV     2   --> E              
     e(105 -106) =     30.14562  eV     2   --> E*             
     e(107 -108) =     30.60520  eV     2   --> E              
     e(107 -108) =     30.60520  eV     2   --> E*             
     e(109 -109) =     31.82513  eV     1   --> A              
     e(110 -110) =     32.13625  eV     1   --> A              
     e(111 -112) =     32.51169  eV     2   --> E              
     e(111 -112) =     32.51169  eV     2   --> E*             
     e(113 -113) =     32.73296  eV     1   --> A              
     e(114 -114) =     33.70039  eV     1   --> A              

 **************************************************************************

 **************************************************************************

                    xk=(   0.37500,   0.37500,   0.37500  )

     Band symmetry, C_3 (3)     point group:

     e(  1 -  4) =    -73.46421  eV     4   -->   2 A              
     e(  1 -  4) =    -73.46421  eV     4   --> E              
     e(  1 -  4) =    -73.46421  eV     4   --> E*             
     e(  5 -  5) =    -39.64114  eV     1   --> A              
     e(  6 -  7) =    -39.64079  eV     2   --> E              
     e(  6 -  7) =    -39.64079  eV     2   --> E*             
     e(  8 -  8) =    -39.64061  eV     1   --> A              
     e(  9 - 10) =    -39.63847  eV     2   --> E              
     e(  9 - 10) =    -39.63847  eV     2   --> E*             
     e( 11 - 12) =    -39.63818  eV     2   --> E              
     e( 11 - 12) =    -39.63818  eV     2   --> E*             
     e( 13 - 13) =    -39.38644  eV     1   --> A              
     e( 14 - 16) =    -39.38632  eV     3   --> A              
     e( 14 - 16) =    -39.38632  eV     3   --> E              
     e( 14 - 16) =    -39.38632  eV     3   --> E*             
     e( 17 - 17) =     -2.80084  eV     1   --> A              
     e( 18 - 18) =     -2.37169  eV     1   --> A              
     e( 19 - 20) =     -2.36096  eV     2   --> E              
     e( 19 - 20) =     -2.36096  eV     2   --> E*             
     e( 21 - 22) =      0.29750  eV     2   --> E              
     e( 21 - 22) =      0.29750  eV     2   --> E*             
     e( 23 - 23) =      0.42754  eV     1   --> A              
     e( 24 - 24) =      0.54686  eV     1   --> A              
     e( 25 - 25) =      5.72346  eV     1   --> A              
     e( 26 - 27) =      6.16024  eV     2   --> E              
     e( 26 - 27) =      6.16024  eV     2   --> E*             
     e( 28 - 28) =      6.36999  eV     1   --> A              
     e( 29 - 30) =      7.14128  eV     2   --> E              
     e( 29 - 30) =      7.14128  eV     2   --> E*             
     e( 31 - 31) =      7.44524  eV     1   --> A              
     e( 32 - 33) =      8.24951  eV     2   --> E              
     e( 32 - 33) =      8.24951  eV     2   --> E*             
     e( 34 - 34) =      8.39327  eV     1   --> A              
     e( 35 - 36) =      8.59430  eV     2   --> E              
     e( 35 - 36) =      8.59430  eV     2   --> E*             
     e( 37 - 38) =      9.99511  eV     2   --> E              
     e( 37 - 38) =      9.99511  eV     2   --> E*             
     e( 39 - 39) =     10.03082  eV     1   --> A              
     e( 40 - 41) =     10.24167  eV     2   --> E              
     e( 40 - 41) =     10.24167  eV     2   --> E*             
     e( 42 - 42) =     10.58045  eV     1   --> A              
     e( 43 - 44) =     10.72867  eV     2   --> E              
     e( 43 - 44) =     10.72867  eV     2   --> E*             
     e( 45 - 46) =     11.81408  eV     2   --> E              
     e( 45 - 46) =     11.81408  eV     2   --> E*             
     e( 47 - 47) =     11.82680  eV     1   --> A              
     e( 48 - 49) =     11.96545  eV     2   --> E              
     e( 48 - 49) =     11.96545  eV     2   --> E*             
     e( 50 - 50) =     12.10661  eV     1   --> A              
     e( 51 - 52) =     12.16158  eV     2   --> E              
     e( 51 - 52) =     12.16158  eV     2   --> E*             
     e( 53 - 53) =     12.39958  eV     1   --> A              
     e( 54 - 55) =     12.54858  eV     2   --> E              
     e( 54 - 55) =     12.54858  eV     2   --> E*             
     e( 56 - 56) =     12.58271  eV     1   --> A              
     e( 57 - 57) =     14.23313  eV     1   --> A              
     e( 58 - 58) =     14.52558  eV     1   --> A              
     e( 59 - 60) =     14.53586  eV     2   --> E              
     e( 59 - 60) =     14.53586  eV     2   --> E*             
     e( 61 - 62) =     15.04180  eV     2   --> E              
     e( 61 - 62) =     15.04180  eV     2   --> E*             
     e( 63 - 64) =     15.35287  eV     2   --> E              
     e( 63 - 64) =     15.35287  eV     2   --> E*             
     e( 65 - 65) =     15.76037  eV     1   --> A              
     e( 66 - 66) =     15.88613  eV     1   --> A              
     e( 67 - 68) =     16.14563  eV     2   --> E              
     e( 67 - 68) =     16.14563  eV     2   --> E*             
     e( 69 - 69) =     19.28108  eV     1   --> A              
     e( 70 - 71) =     19.42939  eV     2   --> E              
     e( 70 - 71) =     19.42939  eV     2   --> E*             
     e( 72 - 72) =     20.46557  eV     1   --> A              
     e( 73 - 73) =     20.53996  eV     1   --> A              
     e( 74 - 75) =     20.74459  eV     2   --> E              
     e( 74 - 75) =     20.74459  eV     2   --> E*             
     e( 76 - 77) =     21.01380  eV     2   --> E              
     e( 76 - 77) =     21.01380  eV     2   --> E*             
     e( 78 - 79) =     21.47599  eV     2   --> E              
     e( 78 - 79) =     21.47599  eV     2   --> E*             
     e( 80 - 80) =     21.62327  eV     1   --> A              
     e( 81 - 82) =     22.08104  eV     2   --> E              
     e( 81 - 82) =     22.08104  eV     2   --> E*             
     e( 83 - 84) =     22.56441  eV     2   --> E              
     e( 83 - 84) =     22.56441  eV     2   --> E*             
     e( 85 - 85) =     22.88495  eV     1   --> A              
     e( 86 - 87) =     23.70792  eV     2   --> E              
     e( 86 - 87) =     23.70792  eV     2   --> E*             
     e( 88 - 88) =     23.74325  eV     1   --> A              
     e( 89 - 89) =     25.44467  eV     1   --> A              
     e( 90 - 90) =     25.91716  eV     1   --> A              
     e( 91 - 91) =     26.10941  eV     1   --> A              
     e( 92 - 93) =     26.18524  eV     2   --> E              
     e( 92 - 93) =     26.18524  eV     2   --> E*             
     e( 94 - 95) =     27.11440  eV     2   --> E              
     e( 94 - 95) =     27.11440  eV     2   --> E*             
     e( 96 - 96) =     27.61796  eV     1   --> A              
     e( 97 - 98) =     28.08626  eV     2   --> E              
     e( 97 - 98) =     28.08626  eV     2   --> E*             
     e( 99 - 99) =     28.20995  eV     1   --> A              
     e(100 -101) =     28.55960  eV     2   --> E              
     e(100 -101) =     28.55960  eV     2   --> E*             
     e(102 -103) =     29.48204  eV     2   --> E              
     e(102 -103) =     29.48204  eV     2   --> E*             
     e(104 -104) =     30.16239  eV     1   --> A              
     e(105 -106) =     30.21507  eV     2   --> E              
     e(105 -106) =     30.21507  eV     2   --> E*             
     e(107 -108) =     30.83649  eV     2   --> E              
     e(107 -108) =     30.83649  eV     2   --> E*             
     e(109 -109) =     31.62601  eV     1   --> A              
     e(110 -110) =     32.02447  eV     1   --> A              
     e(111 -112) =     32.50221  eV     2   --> E              
     e(111 -112) =     32.50221  eV     2   --> E*             
     e(113 -113) =     32.54822  eV     1   --> A              
     e(114 -114) =     33.72367  eV     1   --> A              

 **************************************************************************

 **************************************************************************

                    xk=(   0.35000,   0.35000,   0.35000  )

     Band symmetry, C_3 (3)     point group:

     e(  1 -  4) =    -73.46422  eV     4   -->   2 A              
     e(  1 -  4) =    -73.46422  eV     4   --> E              
     e(  1 -  4) =    -73.46422  eV     4   --> E*             
     e(  5 -  5) =    -39.64114  eV     1   --> A              
     e(  6 -  7) =    -39.64072  eV     2   --> E              
     e(  6 -  7) =    -39.64072  eV     2   --> E*             
     e(  8 -  8) =    -39.64039  eV     1   --> A              
     e(  9 - 10) =    -39.63866  eV     2   --> E              
     e(  9 - 10) =    -39.63866  eV     2   --> E*             
     e( 11 - 12) =    -39.63824  eV     2   --> E              
     e( 11 - 12) =    -39.63824  eV     2   --> E*             
     e( 13 - 13) =    -39.38644  eV     1   --> A              
     e( 14 - 16) =    -39.38634  eV     3   --> A              
     e( 14 - 16) =    -39.38634  eV     3   --> E              
     e( 14 - 16) =    -39.38634  eV     3   --> E*             
     e( 17 - 17) =     -2.93730  eV     1   --> A              
     e( 18 - 18) =     -2.35978  eV     1   --> A              
     e( 19 - 20) =     -2.34570  eV     2   --> E              
     e( 19 - 20) =     -2.34570  eV     2   --> E*             
     e( 21 - 22) =      0.33745  eV     2   --> E              
     e( 21 - 22) =      0.33745  eV     2   --> E*             
     e( 23 - 23) =      0.52547  eV     1   --> A              
     e( 24 - 24) =      0.64702  eV     1   --> A              
     e( 25 - 25) =      5.61459  eV     1   --> A              
     e( 26 - 27) =      6.08808  eV     2   --> E              
     e( 26 - 27) =      6.08808  eV     2   --> E*             
     e( 28 - 28) =      6.39605  eV     1   --> A              
     e( 29 - 30) =      7.10297  eV     2   --> E              
     e( 29 - 30) =      7.10297  eV     2   --> E*             
     e( 31 - 31) =      7.43634  eV     1   --> A              
     e( 32 - 33) =      8.22902  eV     2   --> E              
     e( 32 - 33) =      8.22902  eV     2   --> E*             
     e( 34 - 35) =      8.59832  eV     2   --> E              
     e( 34 - 35) =      8.59832  eV     2   --> E*             
     e( 36 - 36) =      8.64716  eV     1   --> A              
     e( 37 - 37) =      9.83749  eV     1   --> A              
     e( 38 - 39) =      9.87082  eV     2   --> E              
     e( 38 - 39) =      9.87082  eV     2   --> E*             
     e( 40 - 41) =     10.15497  eV     2   --> E              
     e( 40 - 41) =     10.15497  eV     2   --> E*             
     e( 42 - 42) =     10.48958  eV     1   --> A              
     e( 43 - 44) =     10.73296  eV     2   --> E              
     e( 43 - 44) =     10.73296  eV     2   --> E*             
     e( 45 - 46) =     11.86065  eV     2   --> E              
     e( 45 - 46) =     11.86065  eV     2   --> E*             
     e( 47 - 47) =     11.88505  eV     1   --> A              
     e( 48 - 49) =     12.01108  eV     2   --> E              
     e( 48 - 49) =     12.01108  eV     2   --> E*             
     e( 50 - 50) =     12.15138  eV     1   --> A              
     e( 51 - 52) =     12.24467  eV     2   --> E              
     e( 51 - 52) =     12.24467  eV     2   --> E*             
     e( 53 - 53) =     12.40576  eV     1   --> A              
     e( 54 - 55) =     12.58014  eV     2   --> E              
     e( 54 - 55) =     12.58014  eV     2   --> E*             
     e( 56 - 56) =     12.63326  eV     1   --> A              
     e( 57 - 57) =     14.22417  eV     1   --> A              
     e( 58 - 58) =     14.61212  eV     1   --> A              
     e( 59 - 60) =     14.63887  eV     2   --> E              
     e( 59 - 60) =     14.63887  eV     2   --> E*             
     e( 61 - 62) =     14.95710  eV     2   --> E              
     e( 61 - 62) =     14.95710  eV     2   --> E*             
     e( 63 - 64) =     15.40349  eV     2   --> E              
     e( 63 - 64) =     15.40349  eV     2   --> E*             
     e( 65 - 65) =     15.62282  eV     1   --> A              
     e( 66 - 66) =     15.81715  eV     1   --> A              
     e( 67 - 68) =     16.14964  eV     2   --> E              
     e( 67 - 68) =     16.14964  eV     2   --> E*             
     e( 69 - 69) =     19.23319  eV     1   --> A              
     e( 70 - 71) =     19.36209  eV     2   --> E              
     e( 70 - 71) =     19.36209  eV     2   --> E*             
     e( 72 - 72) =     20.35009  eV     1   --> A              
     e( 73 - 74) =     20.63268  eV     2   --> E              
     e( 73 - 74) =     20.63268  eV     2   --> E*             
     e( 75 - 75) =     20.76036  eV     1   --> A              
     e( 76 - 77) =     21.00915  eV     2   --> E              
     e( 76 - 77) =     21.00915  eV     2   --> E*             
     e( 78 - 79) =     21.49880  eV     2   --> E              
     e( 78 - 79) =     21.49880  eV     2   --> E*             
     e( 80 - 80) =     21.66494  eV     1   --> A              
     e( 81 - 82) =     22.18628  eV     2   --> E              
     e( 81 - 82) =     22.18628  eV     2   --> E*             
     e( 83 - 84) =     22.76236  eV     2   --> E              
     e( 83 - 84) =     22.76236  eV     2   --> E*             
     e( 85 - 85) =     22.79998  eV     1   --> A              
     e( 86 - 87) =     23.91643  eV     2   --> E              
     e( 86 - 87) =     23.91643  eV     2   --> E*             
     e( 88 - 88) =     23.97059  eV     1   --> A              
     e( 89 - 89) =     25.44135  eV     1   --> A              
     e( 90 - 90) =     25.93653  eV     1   --> A              
     e( 91 - 91) =     26.03152  eV     1   --> A              
     e( 92 - 93) =     26.15775  eV     2   --> E              
     e( 92 - 93) =     26.15775  eV     2   --> E*             
     e( 94 - 95) =     27.11146  eV     2   --> E              
     e( 94 - 95) =     27.11146  eV     2   --> E*             
     e( 96 - 96) =     27.45504  eV     1   --> A              
     e( 97 - 98) =     27.85554  eV     2   --> E              
     e( 97 - 98) =     27.85554  eV     2   --> E*             
     e( 99 - 99) =     28.19794  eV     1   --> A              
     e(100 -101) =     28.45552  eV     2   --> E              
     e(100 -101) =     28.45552  eV     2   --> E*             
     e(102 -103) =     29.41254  eV     2   --> E              
     e(102 -103) =     29.41254  eV     2   --> E*             
     e(104 -104) =     30.13245  eV     1   --> A              
     e(105 -106) =     30.28211  eV     2   --> E              
     e(105 -106) =     30.28211  eV     2   --> E*             
     e(107 -108) =     31.07571  eV     2   --> E              
     e(107 -108) =     31.07571  eV     2   --> E*             
     e(109 -109) =     31.46304  eV     1   --> A              
     e(110 -110) =     31.94218  eV     1   --> A              
     e(111 -111) =     32.41321  eV     1   --> A              
     e(112 -113) =     32.45369  eV     2   --> E              
     e(112 -113) =     32.45369  eV     2   --> E*             
     e(114 -114) =     33.60483  eV     1   --> A              

 **************************************************************************

 **************************************************************************

                    xk=(   0.32500,   0.32500,   0.32500  )

     Band symmetry, C_3 (3)     point group:

     e(  1 -  4) =    -73.46423  eV     4   -->   2 A              
     e(  1 -  4) =    -73.46423  eV     4   --> E              
     e(  1 -  4) =    -73.46423  eV     4   --> E*             
     e(  5 -  5) =    -39.64108  eV     1   --> A              
     e(  6 -  7) =    -39.64060  eV     2   --> E              
     e(  6 -  7) =    -39.64060  eV     2   --> E*             
     e(  8 -  8) =    -39.64021  eV     1   --> A              
     e(  9 - 10) =    -39.63872  eV     2   --> E              
     e(  9 - 10) =    -39.63872  eV     2   --> E*             
     e( 11 - 12) =    -39.63823  eV     2   --> E              
     e( 11 - 12) =    -39.63823  eV     2   --> E*             
     e( 13 - 13) =    -39.38645  eV     1   --> A              
     e( 14 - 16) =    -39.38628  eV     3   --> A              
     e( 14 - 16) =    -39.38628  eV     3   --> E              
     e( 14 - 16) =    -39.38628  eV     3   --> E*             
     e( 17 - 17) =     -3.07709  eV     1   --> A              
     e( 18 - 18) =     -2.34442  eV     1   --> A              
     e( 19 - 20) =     -2.32723  eV     2   --> E              
     e( 19 - 20) =     -2.32723  eV     2   --> E*             
     e( 21 - 22) =      0.37901  eV     2   --> E              
     e( 21 - 22) =      0.37901  eV     2   --> E*             
     e( 23 - 23) =      0.63534  eV     1   --> A              
     e( 24 - 24) =      0.73506  eV     1   --> A              
     e( 25 - 25) =      5.53671  eV     1   --> A              
     e( 26 - 27) =      6.01453  eV     2   --> E              
     e( 26 - 27) =      6.01453  eV     2   --> E*             
     e( 28 - 28) =      6.43456  eV     1   --> A              
     e( 29 - 30) =      7.08043  eV     2   --> E              
     e( 29 - 30) =      7.08043  eV     2   --> E*             
     e( 31 - 31) =      7.41884  eV     1   --> A              
     e( 32 - 33) =      8.19706  eV     2   --> E              
     e( 32 - 33) =      8.19706  eV     2   --> E*             
     e( 34 - 35) =      8.57074  eV     2   --> E              
     e( 34 - 35) =      8.57074  eV     2   --> E*             
     e( 36 - 36) =      8.88696  eV     1   --> A              
     e( 37 - 37) =      9.66303  eV     1   --> A              
     e( 38 - 39) =      9.75540  eV     2   --> E              
     e( 38 - 39) =      9.75540  eV     2   --> E*             
     e( 40 - 41) =     10.08471  eV     2   --> E              
     e( 40 - 41) =     10.08471  eV     2   --> E*             
     e( 42 - 42) =     10.39085  eV     1   --> A              
     e( 43 - 44) =     10.74127  eV     2   --> E              
     e( 43 - 44) =     10.74127  eV     2   --> E*             
     e( 45 - 46) =     11.90907  eV     2   --> E              
     e( 45 - 46) =     11.90907  eV     2   --> E*             
     e( 47 - 47) =     11.94117  eV     1   --> A              
     e( 48 - 49) =     12.04978  eV     2   --> E              
     e( 48 - 49) =     12.04978  eV     2   --> E*             
     e( 50 - 50) =     12.15227  eV     1   --> A              
     e( 51 - 52) =     12.31193  eV     2   --> E              
     e( 51 - 52) =     12.31193  eV     2   --> E*             
     e( 53 - 53) =     12.43223  eV     1   --> A              
     e( 54 - 55) =     12.60151  eV     2   --> E              
     e( 54 - 55) =     12.60151  eV     2   --> E*             
     e( 56 - 56) =     12.67760  eV     1   --> A              
     e( 57 - 57) =     14.21386  eV     1   --> A              
     e( 58 - 58) =     14.68639  eV     1   --> A              
     e( 59 - 60) =     14.74184  eV     2   --> E              
     e( 59 - 60) =     14.74184  eV     2   --> E*             
     e( 61 - 62) =     14.86878  eV     2   --> E              
     e( 61 - 62) =     14.86878  eV     2   --> E*             
     e( 63 - 64) =     15.46177  eV     2   --> E              
     e( 63 - 64) =     15.46177  eV     2   --> E*             
     e( 65 - 65) =     15.47982  eV     1   --> A              
     e( 66 - 66) =     15.78311  eV     1   --> A              
     e( 67 - 68) =     16.16120  eV     2   --> E              
     e( 67 - 68) =     16.16120  eV     2   --> E*             
     e( 69 - 69) =     19.22675  eV     1   --> A              
     e( 70 - 71) =     19.32936  eV     2   --> E              
     e( 70 - 71) =     19.32936  eV     2   --> E*             
     e( 72 - 72) =     20.22693  eV     1   --> A              
     e( 73 - 74) =     20.56043  eV     2   --> E              
     e( 73 - 74) =     20.56043  eV     2   --> E*             
     e( 75 - 75) =     21.01171  eV     1   --> A              
     e( 76 - 77) =     21.02317  eV     2   --> E              
     e( 76 - 77) =     21.02317  eV     2   --> E*             
     e( 78 - 79) =     21.49936  eV     2   --> E              
     e( 78 - 79) =     21.49936  eV     2   --> E*             
     e( 80 - 80) =     21.66412  eV     1   --> A              
     e( 81 - 82) =     22.30663  eV     2   --> E              
     e( 81 - 82) =     22.30663  eV     2   --> E*             
     e( 83 - 83) =     22.69157  eV     1   --> A              
     e( 84 - 85) =     22.96909  eV     2   --> E              
     e( 84 - 85) =     22.96909  eV     2   --> E*             
     e( 86 - 87) =     24.09193  eV     2   --> E              
     e( 86 - 87) =     24.09193  eV     2   --> E*             
     e( 88 - 88) =     24.14666  eV     1   --> A              
     e( 89 - 89) =     25.41668  eV     1   --> A              
     e( 90 - 90) =     25.86557  eV     1   --> A              
     e( 91 - 92) =     26.06634  eV     2   --> E              
     e( 91 - 92) =     26.06634  eV     2   --> E*             
     e( 93 - 93) =     26.15461  eV     1   --> A              
     e( 94 - 95) =     27.08600  eV     2   --> E              
     e( 94 - 95) =     27.08600  eV     2   --> E*             
     e( 96 - 96) =     27.28434  eV     1   --> A              
     e( 97 - 98) =     27.62679  eV     2   --> E              
     e( 97 - 98) =     27.62679  eV     2   --> E*             
     e( 99 - 99) =     28.22739  eV     1   --> A              
     e(100 -101) =     28.44923  eV     2   --> E              
     e(100 -101) =     28.44923  eV     2   --> E*             
     e(102 -103) =     29.38410  eV     2   --> E              
     e(102 -103) =     29.38410  eV     2   --> E*             
     e(104 -104) =     29.91862  eV     1   --> A              
     e(105 -106) =     30.33438  eV     2   --> E              
     e(105 -106) =     30.33438  eV     2   --> E*             
     e(107 -108) =     31.29901  eV     2   --> E              
     e(107 -108) =     31.29901  eV     2   --> E*             
     e(109 -109) =     31.30418  eV     1   --> A              
     e(110 -110) =     31.78381  eV     1   --> A              
     e(111 -112) =     32.36675  eV     2   --> E              
     e(111 -112) =     32.36675  eV     2   --> E*             
     e(113 -113) =     32.45437  eV     1   --> A              
     e(114 -114) =     33.38737  eV     1   --> A              

 **************************************************************************

 **************************************************************************

                    xk=(   0.30000,   0.30000,   0.30000  )

     Band symmetry, C_3 (3)     point group:

     e(  1 -  4) =    -73.46423  eV     4   -->   2 A              
     e(  1 -  4) =    -73.46423  eV     4   --> E              
     e(  1 -  4) =    -73.46423  eV     4   --> E*             
     e(  5 -  5) =    -39.64110  eV     1   --> A              
     e(  6 -  7) =    -39.64049  eV     2   --> E              
     e(  6 -  7) =    -39.64049  eV     2   --> E*             
     e(  8 -  8) =    -39.64004  eV     1   --> A              
     e(  9 - 10) =    -39.63886  eV     2   --> E              
     e(  9 - 10) =    -39.63886  eV     2   --> E*             
     e( 11 - 12) =    -39.63821  eV     2   --> E              
     e( 11 - 12) =    -39.63821  eV     2   --> E*             
     e( 13 - 13) =    -39.38649  eV     1   --> A              
     e( 14 - 16) =    -39.38623  eV     3   --> A              
     e( 14 - 16) =    -39.38623  eV     3   --> E              
     e( 14 - 16) =    -39.38623  eV     3   --> E*             
     e( 17 - 17) =     -3.21608  eV     1   --> A              
     e( 18 - 18) =     -2.32535  eV     1   --> A              
     e( 19 - 20) =     -2.30557  eV     2   --> E              
     e( 19 - 20) =     -2.30557  eV     2   --> E*             
     e( 21 - 22) =      0.41979  eV     2   --> E              
     e( 21 - 22) =      0.41979  eV     2   --> E*             
     e( 23 - 23) =      0.75015  eV     1   --> A              
     e( 24 - 24) =      0.80923  eV     1   --> A              
     e( 25 - 25) =      5.49243  eV     1   --> A              
     e( 26 - 27) =      5.94702  eV     2   --> E              
     e( 26 - 27) =      5.94702  eV     2   --> E*             
     e( 28 - 28) =      6.48867  eV     1   --> A              
     e( 29 - 30) =      7.06942  eV     2   --> E              
     e( 29 - 30) =      7.06942  eV     2   --> E*             
     e( 31 - 31) =      7.39090  eV     1   --> A              
     e( 32 - 33) =      8.14346  eV     2   --> E              
     e( 32 - 33) =      8.14346  eV     2   --> E*             
     e( 34 - 35) =      8.53419  eV     2   --> E              
     e( 34 - 35) =      8.53419  eV     2   --> E*             
     e( 36 - 36) =      9.09190  eV     1   --> A              
     e( 37 - 37) =      9.52309  eV     1   --> A              
     e( 38 - 39) =      9.64232  eV     2   --> E              
     e( 38 - 39) =      9.64232  eV     2   --> E*             
     e( 40 - 41) =     10.02944  eV     2   --> E              
     e( 40 - 41) =     10.02944  eV     2   --> E*             
     e( 42 - 42) =     10.28396  eV     1   --> A              
     e( 43 - 44) =     10.74981  eV     2   --> E              
     e( 43 - 44) =     10.74981  eV     2   --> E*             
     e( 45 - 46) =     11.95764  eV     2   --> E              
     e( 45 - 46) =     11.95764  eV     2   --> E*             
     e( 47 - 47) =     11.99459  eV     1   --> A              
     e( 48 - 49) =     12.08219  eV     2   --> E              
     e( 48 - 49) =     12.08219  eV     2   --> E*             
     e( 50 - 50) =     12.12048  eV     1   --> A              
     e( 51 - 52) =     12.36287  eV     2   --> E              
     e( 51 - 52) =     12.36287  eV     2   --> E*             
     e( 53 - 53) =     12.47152  eV     1   --> A              
     e( 54 - 55) =     12.60841  eV     2   --> E              
     e( 54 - 55) =     12.60841  eV     2   --> E*             
     e( 56 - 56) =     12.71301  eV     1   --> A              
     e( 57 - 57) =     14.20056  eV     1   --> A              
     e( 58 - 59) =     14.73287  eV     2   --> E              
     e( 58 - 59) =     14.73287  eV     2   --> E*             
     e( 60 - 60) =     14.73995  eV     1   --> A              
     e( 61 - 62) =     14.89360  eV     2   --> E              
     e( 61 - 62) =     14.89360  eV     2   --> E*             
     e( 63 - 63) =     15.33581  eV     1   --> A              
     e( 64 - 65) =     15.52631  eV     2   --> E              
     e( 64 - 65) =     15.52631  eV     2   --> E*             
     e( 66 - 66) =     15.79992  eV     1   --> A              
     e( 67 - 68) =     16.18174  eV     2   --> E              
     e( 67 - 68) =     16.18174  eV     2   --> E*             
     e( 69 - 69) =     19.25120  eV     1   --> A              
     e( 70 - 71) =     19.33032  eV     2   --> E              
     e( 70 - 71) =     19.33032  eV     2   --> E*             
     e( 72 - 72) =     20.11392  eV     1   --> A              
     e( 73 - 74) =     20.53534  eV     2   --> E              
     e( 73 - 74) =     20.53534  eV     2   --> E*             
     e( 75 - 76) =     21.05679  eV     2   --> E              
     e( 75 - 76) =     21.05679  eV     2   --> E*             
     e( 77 - 77) =     21.27140  eV     1   --> A              
     e( 78 - 79) =     21.48156  eV     2   --> E              
     e( 78 - 79) =     21.48156  eV     2   --> E*             
     e( 80 - 80) =     21.63603  eV     1   --> A              
     e( 81 - 82) =     22.42744  eV     2   --> E              
     e( 81 - 82) =     22.42744  eV     2   --> E*             
     e( 83 - 83) =     22.57388  eV     1   --> A              
     e( 84 - 85) =     23.18142  eV     2   --> E              
     e( 84 - 85) =     23.18142  eV     2   --> E*             
     e( 86 - 87) =     24.21345  eV     2   --> E              
     e( 86 - 87) =     24.21345  eV     2   --> E*             
     e( 88 - 88) =     24.25345  eV     1   --> A              
     e( 89 - 89) =     25.33939  eV     1   --> A              
     e( 90 - 90) =     25.84473  eV     1   --> A              
     e( 91 - 92) =     25.97895  eV     2   --> E              
     e( 91 - 92) =     25.97895  eV     2   --> E*             
     e( 93 - 93) =     26.34227  eV     1   --> A              
     e( 94 - 95) =     27.00536  eV     2   --> E              
     e( 94 - 95) =     27.00536  eV     2   --> E*             
     e( 96 - 96) =     27.14277  eV     1   --> A              
     e( 97 - 98) =     27.41908  eV     2   --> E              
     e( 97 - 98) =     27.41908  eV     2   --> E*             
     e( 99 - 99) =     28.27479  eV     1   --> A              
     e(100 -101) =     28.46275  eV     2   --> E              
     e(100 -101) =     28.46275  eV     2   --> E*             
     e(102 -103) =     29.43356  eV     2   --> E              
     e(102 -103) =     29.43356  eV     2   --> E*             
     e(104 -104) =     29.59428  eV     1   --> A              
     e(105 -106) =     30.37230  eV     2   --> E              
     e(105 -106) =     30.37230  eV     2   --> E*             
     e(107 -107) =     31.07712  eV     1   --> A              
     e(108 -109) =     31.47081  eV     2   --> E              
     e(108 -109) =     31.47081  eV     2   --> E*             
     e(110 -110) =     31.61290  eV     1   --> A              
     e(111 -112) =     32.28404  eV     2   --> E              
     e(111 -112) =     32.28404  eV     2   --> E*             
     e(113 -113) =     32.59945  eV     1   --> A              
     e(114 -114) =     33.16851  eV     1   --> A              

 **************************************************************************

 **************************************************************************

                    xk=(   0.27500,   0.27500,   0.27500  )

     Band symmetry, C_3 (3)     point group:

     e(  1 -  4) =    -73.46424  eV     4   -->   2 A              
     e(  1 -  4) =    -73.46424  eV     4   --> E              
     e(  1 -  4) =    -73.46424  eV     4   --> E*             
     e(  5 -  5) =    -39.64113  eV     1   --> A              
     e(  6 -  7) =    -39.64046  eV     2   --> E              
     e(  6 -  7) =    -39.64046  eV     2   --> E*             
     e(  8 -  8) =    -39.63986  eV     1   --> A              
     e(  9 - 10) =    -39.63905  eV     2   --> E              
     e(  9 - 10) =    -39.63905  eV     2   --> E*             
     e( 11 - 12) =    -39.63826  eV     2   --> E              
     e( 11 - 12) =    -39.63826  eV     2   --> E*             
     e( 13 - 13) =    -39.38655  eV     1   --> A              
     e( 14 - 16) =    -39.38625  eV     3   --> A              
     e( 14 - 16) =    -39.38625  eV     3   --> E              
     e( 14 - 16) =    -39.38625  eV     3   --> E*             
     e( 17 - 17) =     -3.35110  eV     1   --> A              
     e( 18 - 18) =     -2.30251  eV     1   --> A              
     e( 19 - 20) =     -2.28085  eV     2   --> E              
     e( 19 - 20) =     -2.28085  eV     2   --> E*             
     e( 21 - 22) =      0.45752  eV     2   --> E              
     e( 21 - 22) =      0.45752  eV     2   --> E*             
     e( 23 - 23) =      0.82801  eV     1   --> A              
     e( 24 - 24) =      0.90501  eV     1   --> A              
     e( 25 - 25) =      5.48155  eV     1   --> A              
     e( 26 - 27) =      5.89200  eV     2   --> E              
     e( 26 - 27) =      5.89200  eV     2   --> E*             
     e( 28 - 28) =      6.56148  eV     1   --> A              
     e( 29 - 30) =      7.06559  eV     2   --> E              
     e( 29 - 30) =      7.06559  eV     2   --> E*             
     e( 31 - 31) =      7.35168  eV     1   --> A              
     e( 32 - 33) =      8.06090  eV     2   --> E              
     e( 32 - 33) =      8.06090  eV     2   --> E*             
     e( 34 - 35) =      8.51261  eV     2   --> E              
     e( 34 - 35) =      8.51261  eV     2   --> E*             
     e( 36 - 36) =      9.19370  eV     1   --> A              
     e( 37 - 37) =      9.47691  eV     1   --> A              
     e( 38 - 39) =      9.52941  eV     2   --> E              
     e( 38 - 39) =      9.52941  eV     2   --> E*             
     e( 40 - 41) =      9.97870  eV     2   --> E              
     e( 40 - 41) =      9.97870  eV     2   --> E*             
     e( 42 - 42) =     10.17065  eV     1   --> A              
     e( 43 - 44) =     10.75423  eV     2   --> E              
     e( 43 - 44) =     10.75423  eV     2   --> E*             
     e( 45 - 46) =     12.00428  eV     2   --> E              
     e( 45 - 46) =     12.00428  eV     2   --> E*             
     e( 47 - 47) =     12.04467  eV     1   --> A              
     e( 48 - 48) =     12.07406  eV     1   --> A              
     e( 49 - 50) =     12.10901  eV     2   --> E              
     e( 49 - 50) =     12.10901  eV     2   --> E*             
     e( 51 - 52) =     12.39802  eV     2   --> E              
     e( 51 - 52) =     12.39802  eV     2   --> E*             
     e( 53 - 53) =     12.51064  eV     1   --> A              
     e( 54 - 55) =     12.59940  eV     2   --> E              
     e( 54 - 55) =     12.59940  eV     2   --> E*             
     e( 56 - 56) =     12.73964  eV     1   --> A              
     e( 57 - 57) =     14.18159  eV     1   --> A              
     e( 58 - 59) =     14.63636  eV     2   --> E              
     e( 58 - 59) =     14.63636  eV     2   --> E*             
     e( 60 - 60) =     14.77460  eV     1   --> A              
     e( 61 - 62) =     15.01562  eV     2   --> E              
     e( 61 - 62) =     15.01562  eV     2   --> E*             
     e( 63 - 63) =     15.19893  eV     1   --> A              
     e( 64 - 65) =     15.59496  eV     2   --> E              
     e( 64 - 65) =     15.59496  eV     2   --> E*             
     e( 66 - 66) =     15.86546  eV     1   --> A              
     e( 67 - 68) =     16.21064  eV     2   --> E              
     e( 67 - 68) =     16.21064  eV     2   --> E*             
     e( 69 - 69) =     19.29048  eV     1   --> A              
     e( 70 - 71) =     19.36356  eV     2   --> E              
     e( 70 - 71) =     19.36356  eV     2   --> E*             
     e( 72 - 72) =     20.02457  eV     1   --> A              
     e( 73 - 74) =     20.55798  eV     2   --> E              
     e( 73 - 74) =     20.55798  eV     2   --> E*             
     e( 75 - 76) =     21.10682  eV     2   --> E              
     e( 75 - 76) =     21.10682  eV     2   --> E*             
     e( 77 - 78) =     21.45045  eV     2   --> E              
     e( 77 - 78) =     21.45045  eV     2   --> E*             
     e( 79 - 79) =     21.50435  eV     1   --> A              
     e( 80 - 80) =     21.61251  eV     1   --> A              
     e( 81 - 81) =     22.46964  eV     1   --> A              
     e( 82 - 83) =     22.53302  eV     2   --> E              
     e( 82 - 83) =     22.53302  eV     2   --> E*             
     e( 84 - 85) =     23.39068  eV     2   --> E              
     e( 84 - 85) =     23.39068  eV     2   --> E*             
     e( 86 - 87) =     24.28706  eV     2   --> E              
     e( 86 - 87) =     24.28706  eV     2   --> E*             
     e( 88 - 88) =     24.30456  eV     1   --> A              
     e( 89 - 89) =     25.18213  eV     1   --> A              
     e( 90 - 90) =     25.84707  eV     1   --> A              
     e( 91 - 92) =     25.91128  eV     2   --> E              
     e( 91 - 92) =     25.91128  eV     2   --> E*             
     e( 93 - 93) =     26.59689  eV     1   --> A              
     e( 94 - 95) =     26.88194  eV     2   --> E              
     e( 94 - 95) =     26.88194  eV     2   --> E*             
     e( 96 - 96) =     27.04533  eV     1   --> A              
     e( 97 - 98) =     27.25942  eV     2   --> E              
     e( 97 - 98) =     27.25942  eV     2   --> E*             
     e( 99 - 99) =     28.32267  eV     1   --> A              
     e(100 -101) =     28.46214  eV     2   --> E              
     e(100 -101) =     28.46214  eV     2   --> E*             
     e(102 -102) =     29.22522  eV     1   --> A              
     e(103 -104) =     29.50911  eV     2   --> E              
     e(103 -104) =     29.50911  eV     2   --> E*             
     e(105 -106) =     30.38884  eV     2   --> E              
     e(105 -106) =     30.38884  eV     2   --> E*             
     e(107 -107) =     30.77889  eV     1   --> A              
     e(108 -108) =     31.45465  eV     1   --> A              
     e(109 -110) =     31.57906  eV     2   --> E              
     e(109 -110) =     31.57906  eV     2   --> E*             
     e(111 -112) =     32.25500  eV     2   --> E              
     e(111 -112) =     32.25500  eV     2   --> E*             
     e(113 -113) =     32.70597  eV     1   --> A              
     e(114 -114) =     33.06105  eV     1   --> A              

 **************************************************************************

 **************************************************************************

                    xk=(   0.25000,   0.25000,   0.25000  )

     Band symmetry, C_3 (3)     point group:

     e(  1 -  4) =    -73.46422  eV     4   -->   2 A              
     e(  1 -  4) =    -73.46422  eV     4   --> E              
     e(  1 -  4) =    -73.46422  eV     4   --> E*             
     e(  5 -  5) =    -39.64112  eV     1   --> A              
     e(  6 -  7) =    -39.64043  eV     2   --> E              
     e(  6 -  7) =    -39.64043  eV     2   --> E*             
     e(  8 -  8) =    -39.63949  eV     1   --> A              
     e(  9 - 10) =    -39.63913  eV     2   --> E              
     e(  9 - 10) =    -39.63913  eV     2   --> E*             
     e( 11 - 12) =    -39.63822  eV     2   --> E              
     e( 11 - 12) =    -39.63822  eV     2   --> E*             
     e( 13 - 13) =    -39.38656  eV     1   --> A              
     e( 14 - 16) =    -39.38619  eV     3   --> A              
     e( 14 - 16) =    -39.38619  eV     3   --> E              
     e( 14 - 16) =    -39.38619  eV     3   --> E*             
     e( 17 - 17) =     -3.47972  eV     1   --> A              
     e( 18 - 18) =     -2.27601  eV     1   --> A              
     e( 19 - 20) =     -2.25337  eV     2   --> E              
     e( 19 - 20) =     -2.25337  eV     2   --> E*             
     e( 21 - 22) =      0.49016  eV     2   --> E              
     e( 21 - 22) =      0.49016  eV     2   --> E*             
     e( 23 - 23) =      0.85186  eV     1   --> A              
     e( 24 - 24) =      1.03563  eV     1   --> A              
     e( 25 - 25) =      5.50136  eV     1   --> A              
     e( 26 - 27) =      5.85440  eV     2   --> E              
     e( 26 - 27) =      5.85440  eV     2   --> E*             
     e( 28 - 28) =      6.65557  eV     1   --> A              
     e( 29 - 30) =      7.06529  eV     2   --> E              
     e( 29 - 30) =      7.06529  eV     2   --> E*             
     e( 31 - 31) =      7.30168  eV     1   --> A              
     e( 32 - 33) =      7.95508  eV     2   --> E              
     e( 32 - 33) =      7.95508  eV     2   --> E*             
     e( 34 - 35) =      8.51483  eV     2   --> E              
     e( 34 - 35) =      8.51483  eV     2   --> E*             
     e( 36 - 36) =      9.14454  eV     1   --> A              
     e( 37 - 38) =      9.41829  eV     2   --> E              
     e( 37 - 38) =      9.41829  eV     2   --> E*             
     e( 39 - 39) =      9.55232  eV     1   --> A              
     e( 40 - 41) =      9.92069  eV     2   --> E              
     e( 40 - 41) =      9.92069  eV     2   --> E*             
     e( 42 - 42) =     10.06305  eV     1   --> A              
     e( 43 - 44) =     10.75015  eV     2   --> E              
     e( 43 - 44) =     10.75015  eV     2   --> E*             
     e( 45 - 45) =     12.02219  eV     1   --> A              
     e( 46 - 47) =     12.04676  eV     2   --> E              
     e( 46 - 47) =     12.04676  eV     2   --> E*             
     e( 48 - 48) =     12.09644  eV     1   --> A              
     e( 49 - 50) =     12.13009  eV     2   --> E              
     e( 49 - 50) =     12.13009  eV     2   --> E*             
     e( 51 - 52) =     12.41829  eV     2   --> E              
     e( 51 - 52) =     12.41829  eV     2   --> E*             
     e( 53 - 53) =     12.54097  eV     1   --> A              
     e( 54 - 55) =     12.57699  eV     2   --> E              
     e( 54 - 55) =     12.57699  eV     2   --> E*             
     e( 56 - 56) =     12.75880  eV     1   --> A              
     e( 57 - 57) =     14.15417  eV     1   --> A              
     e( 58 - 59) =     14.54414  eV     2   --> E              
     e( 58 - 59) =     14.54414  eV     2   --> E*             
     e( 60 - 60) =     14.79192  eV     1   --> A              
     e( 61 - 61) =     15.08796  eV     1   --> A              
     e( 62 - 63) =     15.15231  eV     2   --> E              
     e( 62 - 63) =     15.15231  eV     2   --> E*             
     e( 64 - 65) =     15.66556  eV     2   --> E              
     e( 64 - 65) =     15.66556  eV     2   --> E*             
     e( 66 - 66) =     15.96146  eV     1   --> A              
     e( 67 - 68) =     16.24522  eV     2   --> E              
     e( 67 - 68) =     16.24522  eV     2   --> E*             
     e( 69 - 69) =     19.32345  eV     1   --> A              
     e( 70 - 71) =     19.42888  eV     2   --> E              
     e( 70 - 71) =     19.42888  eV     2   --> E*             
     e( 72 - 72) =     19.98000  eV     1   --> A              
     e( 73 - 74) =     20.62344  eV     2   --> E              
     e( 73 - 74) =     20.62344  eV     2   --> E*             
     e( 75 - 76) =     21.16005  eV     2   --> E              
     e( 75 - 76) =     21.16005  eV     2   --> E*             
     e( 77 - 78) =     21.41662  eV     2   --> E              
     e( 77 - 78) =     21.41662  eV     2   --> E*             
     e( 79 - 79) =     21.52671  eV     1   --> A              
     e( 80 - 80) =     21.76552  eV     1   --> A              
     e( 81 - 81) =     22.40367  eV     1   --> A              
     e( 82 - 83) =     22.60882  eV     2   --> E              
     e( 82 - 83) =     22.60882  eV     2   --> E*             
     e( 84 - 85) =     23.58005  eV     2   --> E              
     e( 84 - 85) =     23.58005  eV     2   --> E*             
     e( 86 - 86) =     24.32059  eV     1   --> A              
     e( 87 - 88) =     24.35240  eV     2   --> E              
     e( 87 - 88) =     24.35240  eV     2   --> E*             
     e( 89 - 89) =     24.95819  eV     1   --> A              
     e( 90 - 91) =     25.84982  eV     2   --> E              
     e( 90 - 91) =     25.84982  eV     2   --> E*             
     e( 92 - 92) =     25.86978  eV     1   --> A              
     e( 93 - 94) =     26.72532  eV     2   --> E              
     e( 93 - 94) =     26.72532  eV     2   --> E*             
     e( 95 - 95) =     26.82636  eV     1   --> A              
     e( 96 - 96) =     27.01280  eV     1   --> A              
     e( 97 - 98) =     27.15615  eV     2   --> E              
     e( 97 - 98) =     27.15615  eV     2   --> E*             
     e( 99 - 99) =     28.35587  eV     1   --> A              
     e(100 -101) =     28.48520  eV     2   --> E              
     e(100 -101) =     28.48520  eV     2   --> E*             
     e(102 -102) =     28.87448  eV     1   --> A              
     e(103 -104) =     29.52286  eV     2   --> E              
     e(103 -104) =     29.52286  eV     2   --> E*             
     e(105 -106) =     30.34425  eV     2   --> E              
     e(105 -106) =     30.34425  eV     2   --> E*             
     e(107 -107) =     30.46275  eV     1   --> A              
     e(108 -108) =     31.26675  eV     1   --> A              
     e(109 -110) =     31.68729  eV     2   --> E              
     e(109 -110) =     31.68729  eV     2   --> E*             
     e(111 -112) =     32.25759  eV     2   --> E              
     e(111 -112) =     32.25759  eV     2   --> E*             
     e(113 -113) =     32.64146  eV     1   --> A              
     e(114 -114) =     33.08988  eV     1   -->   ?

 **************************************************************************

 **************************************************************************

                    xk=(   0.22500,   0.22500,   0.22500  )

     Band symmetry, C_3 (3)     point group:

     e(  1 -  4) =    -73.46422  eV     4   -->   2 A              
     e(  1 -  4) =    -73.46422  eV     4   --> E              
     e(  1 -  4) =    -73.46422  eV     4   --> E*             
     e(  5 -  5) =    -39.64115  eV     1   --> A              
     e(  6 -  7) =    -39.64046  eV     2   --> E              
     e(  6 -  7) =    -39.64046  eV     2   --> E*             
     e(  8 - 10) =    -39.63921  eV     3   --> A              
     e(  8 - 10) =    -39.63921  eV     3   --> E              
     e(  8 - 10) =    -39.63921  eV     3   --> E*             
     e( 11 - 12) =    -39.63822  eV     2   --> E              
     e( 11 - 12) =    -39.63822  eV     2   --> E*             
     e( 13 - 13) =    -39.38660  eV     1   --> A              
     e( 14 - 16) =    -39.38618  eV     3   --> A              
     e( 14 - 16) =    -39.38618  eV     3   --> E              
     e( 14 - 16) =    -39.38618  eV     3   --> E*             
     e( 17 - 17) =     -3.60006  eV     1   --> A              
     e( 18 - 18) =     -2.24626  eV     1   --> A              
     e( 19 - 20) =     -2.22360  eV     2   --> E              
     e( 19 - 20) =     -2.22360  eV     2   --> E*             
     e( 21 - 22) =      0.51612  eV     2   --> E              
     e( 21 - 22) =      0.51612  eV     2   --> E*             
     e( 23 - 23) =      0.84793  eV     1   --> A              
     e( 24 - 24) =      1.17344  eV     1   --> A              
     e( 25 - 25) =      5.54710  eV     1   --> A              
     e( 26 - 27) =      5.83736  eV     2   --> E              
     e( 26 - 27) =      5.83736  eV     2   --> E*             
     e( 28 - 28) =      6.77215  eV     1   --> A              
     e( 29 - 30) =      7.06560  eV     2   --> E              
     e( 29 - 30) =      7.06560  eV     2   --> E*             
     e( 31 - 31) =      7.24313  eV     1   --> A              
     e( 32 - 33) =      7.84014  eV     2   --> E              
     e( 32 - 33) =      7.84014  eV     2   --> E*             
[...]
     e( 10 - 12) =    -39.63802  eV     3   --> A''            
     e( 13 - 13) =    -39.38670  eV     1   --> A''            
     e( 14 - 16) =    -39.38595  eV     3   -->   2 A'             
     e( 14 - 16) =    -39.38595  eV     3   --> A''            
     e( 17 - 17) =     -4.12989  eV     1   --> A'             
     e( 18 - 18) =     -2.03422  eV     1   --> A''            
     e( 19 - 19) =     -2.03397  eV     1   --> A'             
     e( 20 - 20) =     -2.01088  eV     1   --> A''            
     e( 21 - 21) =      0.51917  eV     1   --> A'             
     e( 22 - 22) =      0.52965  eV     1   --> A''            
     e( 23 - 23) =      0.53494  eV     1   --> A'             
     e( 24 - 24) =      1.95116  eV     1   --> A''            
     e( 25 - 25) =      6.14698  eV     1   --> A''            
     e( 26 - 26) =      6.15181  eV     1   --> A'             
     e( 27 - 27) =      6.18279  eV     1   --> A''            
     e( 28 - 28) =      6.89754  eV     1   --> A'             
     e( 29 - 29) =      6.95529  eV     1   --> A''            
     e( 30 - 30) =      6.99365  eV     1   --> A'             
     e( 31 - 31) =      7.58426  eV     1   --> A''            
     e( 32 - 32) =      7.73640  eV     1   --> A''            
     e( 33 - 33) =      7.90194  eV     1   --> A'             
     e( 34 - 34) =      8.02284  eV     1   --> A'             
     e( 35 - 35) =      8.08318  eV     1   --> A''            
     e( 36 - 36) =      8.16533  eV     1   --> A''            
     e( 37 - 37) =      9.01462  eV     1   --> A''            
     e( 38 - 38) =      9.04804  eV     1   --> A'             
     e( 39 - 39) =      9.06654  eV     1   --> A''            
     e( 40 - 40) =      9.33898  eV     1   --> A'             
     e( 41 - 41) =      9.38012  eV     1   --> A'             
     e( 42 - 42) =     10.24499  eV     1   --> A''            
     e( 43 - 43) =     10.29901  eV     1   --> A'             
     e( 44 - 44) =     10.34981  eV     1   --> A'             
     e( 45 - 45) =     11.76000  eV     1   --> A''            
     e( 46 - 46) =     11.76330  eV     1   --> A''            
     e( 47 - 47) =     11.78346  eV     1   --> A'             
     e( 48 - 48) =     12.30121  eV     1   --> A'             
     e( 49 - 49) =     12.31361  eV     1   --> A'             
     e( 50 - 50) =     12.44728  eV     1   --> A''            
     e( 51 - 51) =     12.45127  eV     1   --> A'             
     e( 52 - 52) =     12.46047  eV     1   --> A''            
     e( 53 - 54) =     12.46836  eV     2   --> A'             
     e( 53 - 54) =     12.46836  eV     2   --> A''            
     e( 55 - 55) =     12.47023  eV     1   --> A''            
     e( 56 - 56) =     12.73527  eV     1   --> A'             
     e( 57 - 57) =     13.54253  eV     1   --> A''            
     e( 58 - 58) =     14.35737  eV     1   --> A'             
     e( 59 - 59) =     14.36206  eV     1   --> A''            
     e( 60 - 60) =     14.37003  eV     1   --> A''            
     e( 61 - 61) =     15.96730  eV     1   --> A'             
     e( 62 - 62) =     16.01194  eV     1   --> A''            
     e( 63 - 63) =     16.06839  eV     1   --> A'             
     e( 64 - 64) =     16.15326  eV     1   --> A''            
     e( 65 - 65) =     16.20181  eV     1   --> A'             
     e( 66 - 66) =     16.21908  eV     1   --> A''            
     e( 67 - 67) =     16.67465  eV     1   --> A'             
     e( 68 - 68) =     16.74100  eV     1   --> A'             
     e( 69 - 69) =     19.75935  eV     1   --> A'             
     e( 70 - 70) =     19.81255  eV     1   --> A''            
     e( 71 - 71) =     19.91241  eV     1   --> A'             
     e( 72 - 72) =     21.20580  eV     1   --> A'             
     e( 73 - 73) =     21.26622  eV     1   --> A''            
     e( 74 - 74) =     21.40803  eV     1   --> A'             
     e( 75 - 75) =     21.41654  eV     1   --> A''            
     e( 76 - 76) =     21.59385  eV     1   --> A''            
     e( 77 - 77) =     21.61234  eV     1   --> A'             
     e( 78 - 78) =     21.90114  eV     1   --> A''            
     e( 79 - 79) =     22.01860  eV     1   --> A'             
     e( 80 - 80) =     22.04808  eV     1   --> A''            
     e( 81 - 81) =     22.28737  eV     1   --> A'             
     e( 82 - 82) =     22.36105  eV     1   --> A''            
     e( 83 - 83) =     22.40977  eV     1   --> A''            
     e( 84 - 84) =     23.61467  eV     1   --> A'             
     e( 85 - 85) =     23.70547  eV     1   --> A'             
     e( 86 - 86) =     23.75599  eV     1   --> A''            
     e( 87 - 87) =     24.05486  eV     1   --> A''            
     e( 88 - 88) =     24.64378  eV     1   --> A''            
     e( 89 - 89) =     24.72075  eV     1   --> A'             
     e( 90 - 90) =     24.76811  eV     1   --> A''            
     e( 91 - 91) =     26.07650  eV     1   --> A''            
     e( 92 - 92) =     26.14298  eV     1   --> A''            
     e( 93 - 93) =     26.19283  eV     1   --> A'             
     e( 94 - 94) =     26.25750  eV     1   --> A'             
     e( 95 - 95) =     26.42252  eV     1   --> A''            
     e( 96 - 96) =     26.57920  eV     1   --> A'             
     e( 97 - 97) =     26.70829  eV     1   --> A'             
     e( 98 - 98) =     26.92292  eV     1   --> A'             
     e( 99 - 99) =     28.05549  eV     1   --> A''            
     e(100 -100) =     28.05987  eV     1   --> A'             
     e(101 -101) =     28.14933  eV     1   --> A''            
     e(102 -102) =     29.31199  eV     1   --> A'             
     e(103 -103) =     29.40096  eV     1   --> A''            
     e(104 -104) =     29.58631  eV     1   --> A''            
     e(105 -105) =     29.77019  eV     1   --> A'             
     e(106 -106) =     30.06340  eV     1   --> A'             
     e(107 -107) =     30.22100  eV     1   --> A''            
     e(108 -108) =     30.34496  eV     1   --> A'             
     e(109 -109) =     30.46538  eV     1   --> A'             
     e(110 -110) =     30.51177  eV     1   --> A''            
     e(111 -111) =     30.91669  eV     1   --> A''            
     e(112 -112) =     31.03131  eV     1   --> A'             
     e(113 -113) =     31.16326  eV     1   --> A'             
     e(114 -114) =     33.14785  eV     1   --> A'             

 **************************************************************************

 **************************************************************************

                    xk=(   0.02500,   0.02500,   0.00000  )

     Band symmetry, C_s (m)     point group:

     e(  1 -  1) =    -73.46430  eV     1   --> A'             
     e(  2 -  4) =    -73.46411  eV     3   --> A'             
     e(  2 -  4) =    -73.46411  eV     3   -->   2 A''            
     e(  5 -  7) =    -39.64090  eV     3   -->   2 A'             
     e(  5 -  7) =    -39.64090  eV     3   --> A''            
     e(  8 -  9) =    -39.63900  eV     2   -->   2 A''            
     e( 10 - 12) =    -39.63808  eV     3   -->   2 A'             
     e( 10 - 12) =    -39.63808  eV     3   --> A''            
     e( 13 - 13) =    -39.38660  eV     1   --> A''            
     e( 14 - 16) =    -39.38594  eV     3   -->   2 A'             
     e( 14 - 16) =    -39.38594  eV     3   --> A''            
     e( 17 - 17) =     -4.14403  eV     1   --> A'             
     e( 18 - 19) =     -2.02052  eV     2   --> A'             
     e( 18 - 19) =     -2.02052  eV     2   --> A''            
     e( 20 - 20) =     -2.01461  eV     1   --> A''            
     e( 21 - 21) =      0.51818  eV     1   --> A'             
     e( 22 - 22) =      0.52087  eV     1   --> A''            
     e( 23 - 23) =      0.52219  eV     1   --> A'             
     e( 24 - 24) =      1.97642  eV     1   --> A''            
     e( 25 - 25) =      6.18168  eV     1   --> A''            
     e( 26 - 26) =      6.18300  eV     1   --> A'             
     e( 27 - 27) =      6.19101  eV     1   --> A''            
     e( 28 - 28) =      6.93291  eV     1   --> A'             
     e( 29 - 29) =      6.94878  eV     1   --> A''            
     e( 30 - 30) =      6.95885  eV     1   --> A'             
     e( 31 - 31) =      7.70895  eV     1   --> A''            
     e( 32 - 32) =      7.76947  eV     1   --> A''            
     e( 33 - 33) =      7.92886  eV     1   --> A'             
     e( 34 - 34) =      7.97613  eV     1   --> A''            
     e( 35 - 35) =      7.98189  eV     1   --> A'             
     e( 36 - 36) =      8.01883  eV     1   --> A''            
     e( 37 - 37) =      9.02780  eV     1   --> A''            
     e( 38 - 38) =      9.03677  eV     1   --> A'             
     e( 39 - 39) =      9.04098  eV     1   --> A''            
     e( 40 - 40) =      9.37724  eV     1   --> A'             
     e( 41 - 41) =      9.38861  eV     1   --> A'             
     e( 42 - 42) =     10.26359  eV     1   --> A''            
     e( 43 - 43) =     10.27833  eV     1   --> A'             
     e( 44 - 44) =     10.29132  eV     1   --> A'             
     e( 45 - 45) =     11.74813  eV     1   --> A''            
     e( 46 - 46) =     11.74894  eV     1   --> A''            
     e( 47 - 47) =     11.75419  eV     1   --> A'             
     e( 48 - 48) =     12.31241  eV     1   --> A'             
     e( 49 - 49) =     12.31554  eV     1   --> A'             
     e( 50 - 50) =     12.45731  eV     1   --> A''            
     e( 51 - 51) =     12.45810  eV     1   --> A'             
     e( 52 - 52) =     12.46038  eV     1   --> A''            
     e( 53 - 54) =     12.46792  eV     2   --> A'             
     e( 53 - 54) =     12.46792  eV     2   --> A''            
     e( 55 - 55) =     12.46816  eV     1   --> A''            
     e( 56 - 56) =     12.73295  eV     1   --> A'             
     e( 57 - 57) =     13.50132  eV     1   --> A''            
     e( 58 - 58) =     14.36289  eV     1   --> A'             
     e( 59 - 59) =     14.36402  eV     1   --> A''            
     e( 60 - 60) =     14.36605  eV     1   --> A''            
     e( 61 - 61) =     16.04303  eV     1   --> A'             
     e( 62 - 62) =     16.05511  eV     1   --> A''            
     e( 63 - 63) =     16.07609  eV     1   --> A'             
     e( 64 - 64) =     16.16023  eV     1   --> A''            
     e( 65 - 65) =     16.17968  eV     1   --> A'             
     e( 66 - 66) =     16.18347  eV     1   --> A''            
     e( 67 - 67) =     16.75024  eV     1   --> A'             
     e( 68 - 68) =     16.76758  eV     1   --> A'             
     e( 69 - 69) =     19.78760  eV     1   --> A'             
     e( 70 - 70) =     19.80238  eV     1   --> A''            
     e( 71 - 71) =     19.82839  eV     1   --> A'             
     e( 72 - 72) =     21.09940  eV     1   --> A'             
     e( 73 - 73) =     21.50513  eV     1   --> A''            
     e( 74 - 74) =     21.54192  eV     1   --> A'             
     e( 75 - 75) =     21.57771  eV     1   --> A''            
     e( 76 - 76) =     21.60891  eV     1   --> A'             
     e( 77 - 77) =     21.63027  eV     1   --> A''            
     e( 78 - 78) =     21.93503  eV     1   --> A''            
     e( 79 - 79) =     21.96321  eV     1   --> A'             
     e( 80 - 80) =     21.99163  eV     1   --> A''            
     e( 81 - 81) =     22.31170  eV     1   --> A'             
     e( 82 - 82) =     22.31909  eV     1   --> A''            
     e( 83 - 83) =     22.35792  eV     1   --> A''            
     e( 84 - 84) =     23.65668  eV     1   --> A'             
     e( 85 - 85) =     23.68173  eV     1   --> A'             
     e( 86 - 86) =     23.69372  eV     1   --> A''            
     e( 87 - 87) =     23.86567  eV     1   --> A''            
     e( 88 - 88) =     24.66342  eV     1   --> A''            
     e( 89 - 89) =     24.68500  eV     1   --> A'             
     e( 90 - 90) =     24.69706  eV     1   --> A''            
     e( 91 - 91) =     26.12640  eV     1   --> A''            
     e( 92 - 92) =     26.14460  eV     1   --> A''            
     e( 93 - 93) =     26.31428  eV     1   --> A'             
     e( 94 - 94) =     26.35071  eV     1   --> A'             
     e( 95 - 95) =     26.41032  eV     1   --> A''            
     e( 96 - 96) =     26.53433  eV     1   --> A'             
     e( 97 - 97) =     26.59034  eV     1   --> A'             
     e( 98 - 98) =     26.84402  eV     1   --> A'             
     e( 99 - 99) =     28.07336  eV     1   --> A''            
     e(100 -100) =     28.07461  eV     1   --> A'             
     e(101 -101) =     28.09792  eV     1   --> A''            
     e(102 -102) =     29.54314  eV     1   --> A'             
     e(103 -103) =     29.56896  eV     1   --> A''            
     e(104 -104) =     29.68300  eV     1   --> A''            
     e(105 -105) =     29.80173  eV     1   --> A'             
     e(106 -106) =     29.96436  eV     1   --> A'             
     e(107 -107) =     29.99863  eV     1   --> A''            
     e(108 -108) =     30.40120  eV     1   --> A'             
     e(109 -109) =     30.44035  eV     1   --> A'             
     e(110 -110) =     30.46010  eV     1   --> A''            
     e(111 -111) =     30.73766  eV     1   --> A''            
     e(112 -112) =     30.95420  eV     1   --> A'             
     e(113 -113) =     30.99644  eV     1   --> A'             
     e(114 -114) =     33.17260  eV     1   --> A'             

 **************************************************************************

 **************************************************************************

                    xk=(   0.00000,   0.00000,   0.00000  )

     point group T_h (m-3)  
     there are  8 classes
     the character table:

       E     3C2   4C3   4C3'  i     3s_h  4S6^5 4S6  
A_g    1.00  1.00  1.00  1.00  1.00  1.00  1.00  1.00
E_g    1.00  1.00 -0.50 -0.50  1.00  1.00 -0.50 -0.50
E_g*   1.00  1.00 -0.50 -0.50  1.00  1.00 -0.50 -0.50
T_g    3.00 -1.00  0.00  0.00  3.00 -1.00  0.00  0.00
A_u    1.00  1.00  1.00  1.00 -1.00 -1.00 -1.00 -1.00
E_u    1.00  1.00 -0.50 -0.50 -1.00 -1.00  0.50  0.50
E_u*   1.00  1.00 -0.50 -0.50 -1.00 -1.00  0.50  0.50
T_u    3.00 -1.00  0.00  0.00 -3.00  1.00  0.00  0.00
     imaginary part
A_g    0.00  0.00  0.00  0.00  0.00  0.00  0.00  0.00
E_g    0.00  0.00  0.87 -0.87  0.00  0.00  0.87 -0.87
E_g*   0.00  0.00 -0.87  0.87  0.00  0.00 -0.87  0.87
T_g    0.00  0.00  0.00  0.00  0.00  0.00  0.00  0.00
A_u    0.00  0.00  0.00  0.00  0.00  0.00  0.00  0.00
E_u    0.00  0.00  0.87 -0.87  0.00  0.00 -0.87  0.87
E_u*   0.00  0.00 -0.87  0.87  0.00  0.00  0.87 -0.87
T_u    0.00  0.00  0.00  0.00  0.00  0.00  0.00  0.00

     the symmetry operations in each class and the name of the first element:

     E        1
                                                                 
     3C2      2    3    4
                                                                 
     4C3      9   12   10   11
                                                                 
     4C3'     5    7    8    6
                                                                 
     i       13
                                                                 
     3s_h    14   15   16
                                                                 
     4S6^5   21   24   22   23
                                                                 
     4S6     17   19   20   18
                                                                 

     Band symmetry, T_h (m-3)   point group:

     e(  1 -  1) =    -73.46431  eV     1   --> A_g            
     e(  2 -  4) =    -73.46407  eV     3   --> T_g            
     e(  5 -  7) =    -39.64082  eV     3   --> T_u            
     e(  8 -  9) =    -39.63885  eV     2   --> E_u            
     e(  8 -  9) =    -39.63885  eV     2   --> E_u*           
     e( 10 - 12) =    -39.63802  eV     3   --> T_u            
     e( 13 - 13) =    -39.38650  eV     1   --> A_u            
     e( 14 - 16) =    -39.38587  eV     3   --> T_u            
     e( 17 - 17) =     -4.14876  eV     1   --> A_g            
     e( 18 - 20) =     -2.01588  eV     3   --> T_g            
     e( 21 - 23) =      0.51785  eV     3   --> T_u            
     e( 24 - 24) =      1.98493  eV     1   --> A_u            
     e( 25 - 27) =      6.19379  eV     3   --> T_g            
     e( 28 - 30) =      6.94663  eV     3   --> T_u            
     e( 31 - 32) =      7.80190  eV     2   --> E_u            
     e( 31 - 32) =      7.80190  eV     2   --> E_u*           
     e( 33 - 35) =      7.91826  eV     3   --> T_g            
     e( 36 - 36) =      7.98615  eV     1   --> A_g            
     e( 37 - 39) =      9.03251  eV     3   --> T_g            
     e( 40 - 41) =      9.39235  eV     2   --> E_g            
     e( 40 - 41) =      9.39235  eV     2   --> E_g*           
     e( 42 - 44) =     10.27020  eV     3   --> T_u            
     e( 45 - 47) =     11.74408  eV     3   --> T_g            
     e( 48 - 49) =     12.31617  eV     2   --> E_g            
     e( 48 - 49) =     12.31617  eV     2   --> E_g*           
     e( 50 - 52) =     12.45998  eV     3   --> T_g            
     e( 53 - 55) =     12.46825  eV     3   --> T_g            
     e( 56 - 56) =     12.73218  eV     1   --> A_g            
     e( 57 - 57) =     13.48700  eV     1   --> A_u            
     e( 58 - 60) =     14.36480  eV     3   --> T_g            
     e( 61 - 63) =     16.07841  eV     3   --> T_u            
     e( 64 - 66) =     16.16256  eV     3   --> T_g            
     e( 67 - 68) =     16.77690  eV     2   --> E_g            
     e( 67 - 68) =     16.77690  eV     2   --> E_g*           
     e( 69 - 71) =     19.79863  eV     3   --> T_u            
     e( 72 - 72) =     21.06147  eV     1   --> A_g            
     e( 73 - 75) =     21.60786  eV     3   --> T_u            
     e( 76 - 77) =     21.66688  eV     2   --> E_u            
     e( 76 - 77) =     21.66688  eV     2   --> E_u*           
     e( 78 - 80) =     21.91477  eV     3   --> T_g            
     e( 81 - 83) =     22.33087  eV     3   --> T_g            
     e( 84 - 86) =     23.67235  eV     3   --> T_u            
     e( 87 - 87) =     23.79479  eV     1   --> A_u            
     e( 88 - 90) =     24.67101  eV     3   --> T_g            
     e( 91 - 92) =     26.14462  eV     2   --> E_u            
     e( 91 - 92) =     26.14462  eV     2   --> E_u*           
     e( 93 - 95) =     26.40647  eV     3   --> T_u            
     e( 96 - 97) =     26.49742  eV     2   --> E_g            
     e( 96 - 97) =     26.49742  eV     2   --> E_g*           
     e( 98 - 98) =     26.81566  eV     1   --> A_g            
     e( 99 -101) =     28.07989  eV     3   --> T_g            
     e(102 -104) =     29.73208  eV     3   --> T_g            
     e(105 -107) =     29.81273  eV     3   --> T_u            
     e(108 -110) =     30.43963  eV     3   --> T_u            
     e(111 -111) =     30.66909  eV     1   --> A_u            
     e(112 -113) =     30.92382  eV     2   --> E_g            
     e(112 -113) =     30.92382  eV     2   --> E_g*           
     e(114 -114) =     33.17890  eV     1   -->   ?

 **************************************************************************

     BANDS        :   2m 6.37s CPU   2m32.02s WALL


   This run was terminated on:  17:29:58  20Sep2023            

=------------------------------------------------------------------------------=
   JOB DONE.
=------------------------------------------------------------------------------=
