
     Program BANDS v.7.1 starts on 21Sep2023 at 16:44:56 

     This program is part of the open-source Quantum ESPRESSO suite
     for quantum simulation of materials; please cite
         "P. Giannozzi et al., J. Phys.:Condens. Matter 21 395502 (2009);
         "P. Giannozzi et al., J. Phys.:Condens. Matter 29 465901 (2017);
         "P. Giannozzi et al., J. Chem. Phys. 152 154105 (2020);
          URL http://www.quantum-espresso.org", 
     in publications or presentations arising from this work. More details at
     http://www.quantum-espresso.org/quote

     Parallel version (MPI & OpenMP), running on      10 processor cores
     Number of MPI processes:                10
     Threads/MPI process:                     1

     MPI processes distributed on     1 nodes
     R & G space division:  proc/nbgrp/npool/nimage =      10
     11927 MiB available memory on the printing compute node when the environment starts


     Reading xml data from directory:

     ./work/pwscf.save/

     IMPORTANT: XC functional enforced from input :
     Exchange-correlation= PBE
                           (   1   4   3   4   0   0   0)
     Any further DFT definition will be discarded
     Please, verify this is what you really want


     Parallelization info
     --------------------
     sticks:   dense  smooth     PW     G-vecs:    dense   smooth      PW
     Min         411     236     66                19790     8572    1296
     Max         413     237     67                19791     8575    1297
     Sum        4117    2361    665               197909    85735   12965

     Using Slab Decomposition

     Reading collected, re-writing distributed wavefunctions
     high-symmetry point:  0.5000 0.5000 0.5000   x coordinate   0.0000
     high-symmetry point:  0.0000 0.0000 0.0000   x coordinate   0.8660
     high-symmetry point:  0.5000 0.0000 0.0000   x coordinate   1.3660
     high-symmetry point:  0.5000 0.5000 0.0000   x coordinate   1.8660
     high-symmetry point:  0.0000 0.0000 0.0000   x coordinate   2.5731

     Plottable bands (eV) written to file bands.out.gnu
     Bands written to file bands.out

 **************************************************************************

                    xk=(   0.50000,   0.50000,   0.50000  )

     zone border point and non-symmorphic group 
     symmetry decomposition not available

 **************************************************************************

 **************************************************************************

                    xk=(   0.47500,   0.47500,   0.47500  )

     point group C_3 (3)    
     there are  3 classes
     the character table:

       E     C3    C3^2 
A      1.00  1.00  1.00
E      1.00 -0.50 -0.50
E*     1.00 -0.50 -0.50
     imaginary part
A      0.00  0.00  0.00
E      0.00  0.87 -0.87
E*     0.00 -0.87  0.87

     the symmetry operations in each class and the name of the first element:

     E        1
                                                                 
     C3       3
                                                                 
     C3^2     2
                                                                 

     Band symmetry, C_3 (3)     point group:

     e(  1 -  4) =    -73.36122  eV     4   -->   2 A              
     e(  1 -  4) =    -73.36122  eV     4   --> E              
     e(  1 -  4) =    -73.36122  eV     4   --> E*             
     e(  5 -  8) =    -39.54356  eV     4   -->   2 A              
     e(  5 -  8) =    -39.54356  eV     4   --> E              
     e(  5 -  8) =    -39.54356  eV     4   --> E*             
     e(  9 - 12) =    -39.54093  eV     4   -->   2 E              
     e(  9 - 12) =    -39.54093  eV     4   -->   2 E*             
     e( 13 - 16) =    -39.29392  eV     4   -->   2 A              
     e( 13 - 16) =    -39.29392  eV     4   --> E              
     e( 13 - 16) =    -39.29392  eV     4   --> E*             
     e( 17 - 17) =     -2.38548  eV     1   --> A              
     e( 18 - 18) =     -2.36477  eV     1   --> A              
     e( 19 - 20) =     -2.36425  eV     2   --> E              
     e( 19 - 20) =     -2.36425  eV     2   --> E*             
     e( 21 - 22) =      0.23244  eV     2   --> E              
     e( 21 - 22) =      0.23244  eV     2   --> E*             
     e( 23 - 23) =      0.23757  eV     1   --> A              
     e( 24 - 24) =      0.24664  eV     1   --> A              
     e( 25 - 25) =      6.32319  eV     1   --> A              
     e( 26 - 27) =      6.36815  eV     2   --> E              
     e( 26 - 27) =      6.36815  eV     2   --> E*             
     e( 28 - 28) =      6.37533  eV     1   --> A              
     e( 29 - 30) =      7.44298  eV     2   --> E              
     e( 29 - 30) =      7.44298  eV     2   --> E*             
     e( 31 - 31) =      7.46963  eV     1   --> A              
     e( 32 - 32) =      7.53387  eV     1   --> A              
     e( 33 - 34) =      8.33542  eV     2   --> E              
     e( 33 - 34) =      8.33542  eV     2   --> E*             
     e( 35 - 36) =      8.36542  eV     2   --> E              
     e( 35 - 36) =      8.36542  eV     2   --> E*             
     e( 37 - 38) =     10.52887  eV     2   --> E              
     e( 37 - 38) =     10.52887  eV     2   --> E*             
     e( 39 - 40) =     10.55208  eV     2   --> E              
     e( 39 - 40) =     10.55208  eV     2   --> E*             
     e( 41 - 41) =     10.81621  eV     1   --> A              
     e( 42 - 43) =     10.85788  eV     2   --> E              
     e( 42 - 43) =     10.85788  eV     2   --> E*             
     e( 44 - 44) =     10.86417  eV     1   --> A              
     e( 45 - 45) =     11.70758  eV     1   --> A              
     e( 46 - 47) =     11.71608  eV     2   --> E              
     e( 46 - 47) =     11.71608  eV     2   --> E*             
     e( 48 - 48) =     11.74490  eV     1   --> A              
     e( 49 - 50) =     11.86662  eV     2   --> E              
     e( 49 - 50) =     11.86662  eV     2   --> E*             
     e( 51 - 52) =     11.88066  eV     2   --> E              
     e( 51 - 52) =     11.88066  eV     2   --> E*             
     e( 53 - 53) =     12.51754  eV     1   --> A              
     e( 54 - 55) =     12.52491  eV     2   --> E              
     e( 54 - 55) =     12.52491  eV     2   --> E*             
     e( 56 - 56) =     12.52555  eV     1   --> A              
     e( 57 - 57) =     14.33950  eV     1   --> A              
     e( 58 - 58) =     14.35270  eV     1   --> A              
     e( 59 - 60) =     14.35301  eV     2   --> E              
     e( 59 - 60) =     14.35301  eV     2   --> E*             
     e( 61 - 62) =     15.29150  eV     2   --> E              
     e( 61 - 62) =     15.29150  eV     2   --> E*             
     e( 63 - 64) =     15.30384  eV     2   --> E              
     e( 63 - 64) =     15.30384  eV     2   --> E*             
     e( 65 - 65) =     16.19480  eV     1   --> A              
     e( 66 - 66) =     16.20009  eV     1   --> A              
     e( 67 - 68) =     16.21232  eV     2   --> E              
     e( 67 - 68) =     16.21232  eV     2   --> E*             
     e( 69 - 69) =     19.89097  eV     1   --> A              
     e( 70 - 71) =     19.92604  eV     2   --> E              
     e( 70 - 71) =     19.92604  eV     2   --> E*             
     e( 72 - 72) =     19.99385  eV     1   --> A              
     e( 73 - 73) =     20.91417  eV     1   --> A              
     e( 74 - 75) =     20.95927  eV     2   --> E              
     e( 74 - 75) =     20.95927  eV     2   --> E*             
     e( 76 - 76) =     21.02305  eV     1   --> A              
     e( 77 - 78) =     21.39789  eV     2   --> E              
     e( 77 - 78) =     21.39789  eV     2   --> E*             
     e( 79 - 80) =     21.42920  eV     2   --> E              
     e( 79 - 80) =     21.42920  eV     2   --> E*             
     e( 81 - 82) =     21.89652  eV     2   --> E              
     e( 81 - 82) =     21.89652  eV     2   --> E*             
     e( 83 - 84) =     21.93345  eV     2   --> E              
     e( 83 - 84) =     21.93345  eV     2   --> E*             
     e( 85 - 85) =     23.04537  eV     1   --> A              
     e( 86 - 86) =     23.07968  eV     1   --> A              
     e( 87 - 88) =     23.08214  eV     2   --> E              
     e( 87 - 88) =     23.08214  eV     2   --> E*             
     e( 89 - 89) =     25.44544  eV     1   --> A              
     e( 90 - 90) =     25.47240  eV     1   --> A              

 **************************************************************************

 **************************************************************************

                    xk=(   0.45000,   0.45000,   0.45000  )

     Band symmetry, C_3 (3)     point group:

     e(  1 -  4) =    -73.36124  eV     4   -->   2 A              
     e(  1 -  4) =    -73.36124  eV     4   --> E              
     e(  1 -  4) =    -73.36124  eV     4   --> E*             
     e(  5 -  8) =    -39.54365  eV     4   -->   2 A              
     e(  5 -  8) =    -39.54365  eV     4   --> E              
     e(  5 -  8) =    -39.54365  eV     4   --> E*             
     e(  9 - 12) =    -39.54103  eV     4   -->   2 E              
     e(  9 - 12) =    -39.54103  eV     4   -->   2 E*             
     e( 13 - 16) =    -39.29400  eV     4   -->   2 A              
     e( 13 - 16) =    -39.29400  eV     4   --> E              
     e( 13 - 16) =    -39.29400  eV     4   --> E*             
     e( 17 - 17) =     -2.44298  eV     1   --> A              
     e( 18 - 18) =     -2.36249  eV     1   --> A              
     e( 19 - 20) =     -2.36045  eV     2   --> E              
     e( 19 - 20) =     -2.36045  eV     2   --> E*             
     e( 21 - 22) =      0.24663  eV     2   --> E              
     e( 21 - 22) =      0.24663  eV     2   --> E*             
     e( 23 - 23) =      0.26719  eV     1   --> A              
     e( 24 - 24) =      0.30074  eV     1   --> A              
     e( 25 - 25) =      6.19782  eV     1   --> A              
     e( 26 - 27) =      6.34769  eV     2   --> E              
     e( 26 - 27) =      6.34769  eV     2   --> E*             
     e( 28 - 28) =      6.37733  eV     1   --> A              
     e( 29 - 30) =      7.37945  eV     2   --> E              
     e( 29 - 30) =      7.37945  eV     2   --> E*             
     e( 31 - 31) =      7.47251  eV     1   --> A              
     e( 32 - 32) =      7.70047  eV     1   --> A              
     e( 33 - 34) =      8.32973  eV     2   --> E              
     e( 33 - 34) =      8.32973  eV     2   --> E*             
     e( 35 - 36) =      8.43550  eV     2   --> E              
     e( 35 - 36) =      8.43550  eV     2   --> E*             
     e( 37 - 38) =     10.43754  eV     2   --> E              
     e( 37 - 38) =     10.43754  eV     2   --> E*             
     e( 39 - 40) =     10.51854  eV     2   --> E              
     e( 39 - 40) =     10.51854  eV     2   --> E*             
     e( 41 - 41) =     10.66588  eV     1   --> A              
     e( 42 - 43) =     10.81656  eV     2   --> E              
     e( 42 - 43) =     10.81656  eV     2   --> E*             
     e( 44 - 44) =     10.82579  eV     1   --> A              
     e( 45 - 45) =     11.74045  eV     1   --> A              
     e( 46 - 47) =     11.76004  eV     2   --> E              
     e( 46 - 47) =     11.76004  eV     2   --> E*             
     e( 48 - 48) =     11.85765  eV     1   --> A              
     e( 49 - 50) =     11.89685  eV     2   --> E              
     e( 49 - 50) =     11.89685  eV     2   --> E*             
     e( 51 - 52) =     11.94818  eV     2   --> E              
     e( 51 - 52) =     11.94818  eV     2   --> E*             
     e( 53 - 53) =     12.51265  eV     1   --> A              
     e( 54 - 55) =     12.54174  eV     2   --> E              
     e( 54 - 55) =     12.54174  eV     2   --> E*             
     e( 56 - 56) =     12.54499  eV     1   --> A              
     e( 57 - 57) =     14.33519  eV     1   --> A              
     e( 58 - 58) =     14.38715  eV     1   --> A              
     e( 59 - 60) =     14.38840  eV     2   --> E              
     e( 59 - 60) =     14.38840  eV     2   --> E*             
     e( 61 - 62) =     15.26875  eV     2   --> E              
     e( 61 - 62) =     15.26875  eV     2   --> E*             
     e( 63 - 64) =     15.31818  eV     2   --> E              
     e( 63 - 64) =     15.31818  eV     2   --> E*             
     e( 65 - 65) =     16.14038  eV     1   --> A              
     e( 66 - 66) =     16.16127  eV     1   --> A              
     e( 67 - 68) =     16.20940  eV     2   --> E              
     e( 67 - 68) =     16.20940  eV     2   --> E*             
     e( 69 - 69) =     19.72630  eV     1   --> A              
     e( 70 - 71) =     19.82183  eV     2   --> E              
     e( 70 - 71) =     19.82183  eV     2   --> E*             
     e( 72 - 72) =     20.07063  eV     1   --> A              
     e( 73 - 73) =     20.85227  eV     1   --> A              
     e( 74 - 75) =     21.00193  eV     2   --> E              
     e( 74 - 75) =     21.00193  eV     2   --> E*             
     e( 76 - 76) =     21.21292  eV     1   --> A              
     e( 77 - 78) =     21.28076  eV     2   --> E              
     e( 77 - 78) =     21.28076  eV     2   --> E*             
     e( 79 - 80) =     21.40926  eV     2   --> E              
     e( 79 - 80) =     21.40926  eV     2   --> E*             
     e( 81 - 82) =     21.92859  eV     2   --> E              
     e( 81 - 82) =     21.92859  eV     2   --> E*             
     e( 83 - 84) =     22.05706  eV     2   --> E              
     e( 83 - 84) =     22.05706  eV     2   --> E*             
     e( 85 - 85) =     23.03054  eV     1   --> A              
     e( 86 - 86) =     23.16775  eV     1   --> A              
     e( 87 - 88) =     23.17539  eV     2   --> E              
     e( 87 - 88) =     23.17539  eV     2   --> E*             
     e( 89 - 89) =     25.44708  eV     1   --> A              
     e( 90 - 90) =     25.54949  eV     1   --> A              

 **************************************************************************

 **************************************************************************

                    xk=(   0.42500,   0.42500,   0.42500  )

     Band symmetry, C_3 (3)     point group:

     e(  1 -  4) =    -73.36126  eV     4   -->   2 A              
     e(  1 -  4) =    -73.36126  eV     4   --> E              
     e(  1 -  4) =    -73.36126  eV     4   --> E*             
     e(  5 -  8) =    -39.54366  eV     4   -->   2 A              
     e(  5 -  8) =    -39.54366  eV     4   --> E              
     e(  5 -  8) =    -39.54366  eV     4   --> E*             
     e(  9 - 10) =    -39.54118  eV     2   --> E              
     e(  9 - 10) =    -39.54118  eV     2   --> E*             
     e( 11 - 12) =    -39.54100  eV     2   --> E              
     e( 11 - 12) =    -39.54100  eV     2   --> E*             
     e( 13 - 16) =    -39.29405  eV     4   -->   2 A              
     e( 13 - 16) =    -39.29405  eV     4   --> E              
     e( 13 - 16) =    -39.29405  eV     4   --> E*             
     e( 17 - 17) =     -2.53170  eV     1   --> A              
     e( 18 - 18) =     -2.35838  eV     1   --> A              
     e( 19 - 20) =     -2.35399  eV     2   --> E              
     e( 19 - 20) =     -2.35399  eV     2   --> E*             
     e( 21 - 22) =      0.26945  eV     2   --> E              
     e( 21 - 22) =      0.26945  eV     2   --> E*             
     e( 23 - 23) =      0.31582  eV     1   --> A              
     e( 24 - 24) =      0.38210  eV     1   --> A              
     e( 25 - 25) =      6.04482  eV     1   --> A              
     e( 26 - 27) =      6.31213  eV     2   --> E              
     e( 26 - 27) =      6.31213  eV     2   --> E*             
     e( 28 - 28) =      6.38192  eV     1   --> A              
     e( 29 - 30) =      7.30275  eV     2   --> E              
     e( 29 - 30) =      7.30275  eV     2   --> E*             
     e( 31 - 31) =      7.47593  eV     1   --> A              
     e( 32 - 32) =      7.92212  eV     1   --> A              
     e( 33 - 34) =      8.32063  eV     2   --> E              
     e( 33 - 34) =      8.32063  eV     2   --> E*             
     e( 35 - 36) =      8.51950  eV     2   --> E              
     e( 35 - 36) =      8.51950  eV     2   --> E*             
     e( 37 - 38) =     10.30935  eV     2   --> E              
     e( 37 - 38) =     10.30935  eV     2   --> E*             
     e( 39 - 40) =     10.45657  eV     2   --> E              
     e( 39 - 40) =     10.45657  eV     2   --> E*             
     e( 41 - 41) =     10.47527  eV     1   --> A              
     e( 42 - 42) =     10.76816  eV     1   --> A              
     e( 43 - 44) =     10.78269  eV     2   --> E              
     e( 43 - 44) =     10.78269  eV     2   --> E*             
     e( 45 - 45) =     11.78834  eV     1   --> A              
     e( 46 - 47) =     11.80580  eV     2   --> E              
     e( 46 - 47) =     11.80580  eV     2   --> E*             
     e( 48 - 49) =     11.94376  eV     2   --> E              
     e( 48 - 49) =     11.94376  eV     2   --> E*             
     e( 50 - 50) =     11.98462  eV     1   --> A              
     e( 51 - 52) =     12.04345  eV     2   --> E              
     e( 51 - 52) =     12.04345  eV     2   --> E*             
     e( 53 - 53) =     12.50480  eV     1   --> A              
     e( 54 - 55) =     12.56824  eV     2   --> E              
     e( 54 - 55) =     12.56824  eV     2   --> E*             
     e( 56 - 56) =     12.57719  eV     1   --> A              
     e( 57 - 57) =     14.32845  eV     1   --> A              
     e( 58 - 58) =     14.44265  eV     1   --> A              
     e( 59 - 60) =     14.44556  eV     2   --> E              
     e( 59 - 60) =     14.44556  eV     2   --> E*             
     e( 61 - 62) =     15.23018  eV     2   --> E              
     e( 61 - 62) =     15.23018  eV     2   --> E*             
     e( 63 - 64) =     15.34177  eV     2   --> E              
     e( 63 - 64) =     15.34177  eV     2   --> E*             
     e( 65 - 65) =     16.05418  eV     1   --> A              
     e( 66 - 66) =     16.10016  eV     1   --> A              
     e( 67 - 68) =     16.20515  eV     2   --> E              
     e( 67 - 68) =     16.20515  eV     2   --> E*             
     e( 69 - 69) =     19.55580  eV     1   --> A              
     e( 70 - 71) =     19.69395  eV     2   --> E              
     e( 70 - 71) =     19.69395  eV     2   --> E*             
     e( 72 - 72) =     20.19498  eV     1   --> A              
     e( 73 - 73) =     20.75925  eV     1   --> A              
     e( 74 - 75) =     21.00855  eV     2   --> E              
     e( 74 - 75) =     21.00855  eV     2   --> E*             
     e( 76 - 77) =     21.14361  eV     2   --> E              
     e( 76 - 77) =     21.14361  eV     2   --> E*             
     e( 78 - 78) =     21.41043  eV     1   --> A              
     e( 79 - 80) =     21.42332  eV     2   --> E              
     e( 79 - 80) =     21.42332  eV     2   --> E*             
     e( 81 - 82) =     21.97114  eV     2   --> E              
     e( 81 - 82) =     21.97114  eV     2   --> E*             
     e( 83 - 84) =     22.21669  eV     2   --> E              
     e( 83 - 84) =     22.21669  eV     2   --> E*             
     e( 85 - 85) =     23.00664  eV     1   --> A              
     e( 86 - 86) =     23.31576  eV     1   --> A              
     e( 87 - 88) =     23.32454  eV     2   --> E              
     e( 87 - 88) =     23.32454  eV     2   --> E*             
     e( 89 - 89) =     25.44999  eV     1   --> A              
     e( 90 - 90) =     25.66181  eV     1   --> A              

 **************************************************************************

 **************************************************************************

                    xk=(   0.40000,   0.40000,   0.40000  )

     Band symmetry, C_3 (3)     point group:

     e(  1 -  4) =    -73.36130  eV     4   -->   2 A              
     e(  1 -  4) =    -73.36130  eV     4   --> E              
     e(  1 -  4) =    -73.36130  eV     4   --> E*             
     e(  5 -  5) =    -39.54359  eV     1   --> A              
     e(  6 -  8) =    -39.54345  eV     3   --> A              
     e(  6 -  8) =    -39.54345  eV     3   --> E              
     e(  6 -  8) =    -39.54345  eV     3   --> E*             
     e(  9 - 10) =    -39.54111  eV     2   --> E              
     e(  9 - 10) =    -39.54111  eV     2   --> E*             
     e( 11 - 12) =    -39.54099  eV     2   --> E              
     e( 11 - 12) =    -39.54099  eV     2   --> E*             
     e( 13 - 16) =    -39.29397  eV     4   -->   2 A              
     e( 13 - 16) =    -39.29397  eV     4   --> E              
     e( 13 - 16) =    -39.29397  eV     4   --> E*             
     e( 17 - 17) =     -2.64363  eV     1   --> A              
     e( 18 - 18) =     -2.35208  eV     1   --> A              
     e( 19 - 20) =     -2.34473  eV     2   --> E              
     e( 19 - 20) =     -2.34473  eV     2   --> E*             
     e( 21 - 22) =      0.29969  eV     2   --> E              
     e( 21 - 22) =      0.29969  eV     2   --> E*             
     e( 23 - 23) =      0.38241  eV     1   --> A              
     e( 24 - 24) =      0.48030  eV     1   --> A              
     e( 25 - 25) =      5.89295  eV     1   --> A              
     e( 26 - 27) =      6.26105  eV     2   --> E              
     e( 26 - 27) =      6.26105  eV     2   --> E*             
     e( 28 - 28) =      6.39087  eV     1   --> A              
     e( 29 - 30) =      7.23198  eV     2   --> E              
     e( 29 - 30) =      7.23198  eV     2   --> E*             
     e( 31 - 31) =      7.47802  eV     1   --> A              
     e( 32 - 32) =      8.16971  eV     1   --> A              
     e( 33 - 34) =      8.30840  eV     2   --> E              
     e( 33 - 34) =      8.30840  eV     2   --> E*             
     e( 35 - 36) =      8.59185  eV     2   --> E              
     e( 35 - 36) =      8.59185  eV     2   --> E*             
     e( 37 - 38) =     10.16863  eV     2   --> E              
     e( 37 - 38) =     10.16863  eV     2   --> E*             
     e( 39 - 39) =     10.27131  eV     1   --> A              
     e( 40 - 41) =     10.37208  eV     2   --> E              
     e( 40 - 41) =     10.37208  eV     2   --> E*             
     e( 42 - 42) =     10.69674  eV     1   --> A              
     e( 43 - 44) =     10.76638  eV     2   --> E              
     e( 43 - 44) =     10.76638  eV     2   --> E*             
     e( 45 - 45) =     11.84459  eV     1   --> A              
     e( 46 - 47) =     11.85003  eV     2   --> E              
     e( 46 - 47) =     11.85003  eV     2   --> E*             
     e( 48 - 49) =     11.99799  eV     2   --> E              
     e( 48 - 49) =     11.99799  eV     2   --> E*             
     e( 50 - 50) =     12.09837  eV     1   --> A              
     e( 51 - 52) =     12.14635  eV     2   --> E              
     e( 51 - 52) =     12.14635  eV     2   --> E*             
     e( 53 - 53) =     12.49511  eV     1   --> A              
     e( 54 - 55) =     12.60113  eV     2   --> E              
     e( 54 - 55) =     12.60113  eV     2   --> E*             
     e( 56 - 56) =     12.62041  eV     1   --> A              
     e( 57 - 57) =     14.32020  eV     1   --> A              
     e( 58 - 58) =     14.51580  eV     1   --> A              
     e( 59 - 60) =     14.52177  eV     2   --> E              
     e( 59 - 60) =     14.52177  eV     2   --> E*             
     e( 61 - 62) =     15.17534  eV     2   --> E              
     e( 61 - 62) =     15.17534  eV     2   --> E*             
     e( 63 - 64) =     15.37442  eV     2   --> E              
     e( 63 - 64) =     15.37442  eV     2   --> E*             
     e( 65 - 65) =     15.94268  eV     1   --> A              
     e( 66 - 66) =     16.02312  eV     1   --> A              
     e( 67 - 68) =     16.20086  eV     2   --> E              
     e( 67 - 68) =     16.20086  eV     2   --> E*             
     e( 69 - 69) =     19.41667  eV     1   --> A              
     e( 70 - 71) =     19.57169  eV     2   --> E              
     e( 70 - 71) =     19.57169  eV     2   --> E*             
     e( 72 - 72) =     20.36160  eV     1   --> A              
     e( 73 - 73) =     20.64612  eV     1   --> A              
     e( 74 - 75) =     20.91769  eV     2   --> E              
     e( 74 - 75) =     20.91769  eV     2   --> E*             
     e( 76 - 77) =     21.06872  eV     2   --> E              
     e( 76 - 77) =     21.06872  eV     2   --> E*             
     e( 78 - 79) =     21.46680  eV     2   --> E              
     e( 78 - 79) =     21.46680  eV     2   --> E*             
     e( 80 - 80) =     21.56520  eV     1   --> A              
     e( 81 - 82) =     22.02903  eV     2   --> E              
     e( 81 - 82) =     22.02903  eV     2   --> E*             
     e( 83 - 84) =     22.39432  eV     2   --> E              
     e( 83 - 84) =     22.39432  eV     2   --> E*             
     e( 85 - 85) =     22.97062  eV     1   --> A              
     e( 86 - 87) =     23.51695  eV     2   --> E              
     e( 86 - 87) =     23.51695  eV     2   --> E*             
     e( 88 - 88) =     23.51840  eV     1   --> A              
     e( 89 - 89) =     25.45423  eV     1   --> A              
     e( 90 - 90) =     25.78976  eV     1   --> A              

 **************************************************************************

 **************************************************************************

                    xk=(   0.37500,   0.37500,   0.37500  )

     Band symmetry, C_3 (3)     point group:

     e(  1 -  4) =    -73.36126  eV     4   -->   2 A              
     e(  1 -  4) =    -73.36126  eV     4   --> E              
     e(  1 -  4) =    -73.36126  eV     4   --> E*             
     e(  5 -  5) =    -39.54362  eV     1   --> A              
     e(  6 -  7) =    -39.54336  eV     2   --> E              
     e(  6 -  7) =    -39.54336  eV     2   --> E*             
     e(  8 -  8) =    -39.54316  eV     1   --> A              
     e(  9 - 10) =    -39.54131  eV     2   --> E              
     e(  9 - 10) =    -39.54131  eV     2   --> E*             
     e( 11 - 12) =    -39.54104  eV     2   --> E              
     e( 11 - 12) =    -39.54104  eV     2   --> E*             
     e( 13 - 16) =    -39.29401  eV     4   -->   2 A              
     e( 13 - 16) =    -39.29401  eV     4   --> E              
     e( 13 - 16) =    -39.29401  eV     4   --> E*             
     e( 17 - 17) =     -2.77094  eV     1   --> A              
     e( 18 - 18) =     -2.34314  eV     1   --> A              
     e( 19 - 20) =     -2.33250  eV     2   --> E              
     e( 19 - 20) =     -2.33250  eV     2   --> E*             
     e( 21 - 22) =      0.33571  eV     2   --> E              
     e( 21 - 22) =      0.33571  eV     2   --> E*             
     e( 23 - 23) =      0.46550  eV     1   --> A              
     e( 24 - 24) =      0.58441  eV     1   --> A              
     e( 25 - 25) =      5.75772  eV     1   --> A              
     e( 26 - 27) =      6.19644  eV     2   --> E              
     e( 26 - 27) =      6.19644  eV     2   --> E*             
     e( 28 - 28) =      6.40644  eV     1   --> A              
     e( 29 - 30) =      7.17682  eV     2   --> E              
     e( 29 - 30) =      7.17682  eV     2   --> E*             
     e( 31 - 31) =      7.47645  eV     1   --> A              
     e( 32 - 33) =      8.29258  eV     2   --> E              
     e( 32 - 33) =      8.29258  eV     2   --> E*             
     e( 34 - 34) =      8.42663  eV     1   --> A              
     e( 35 - 36) =      8.63389  eV     2   --> E              
     e( 35 - 36) =      8.63389  eV     2   --> E*             
     e( 37 - 38) =     10.03328  eV     2   --> E              
     e( 37 - 38) =     10.03328  eV     2   --> E*             
     e( 39 - 39) =     10.06812  eV     1   --> A              
     e( 40 - 41) =     10.27996  eV     2   --> E              
     e( 40 - 41) =     10.27996  eV     2   --> E*             
     e( 42 - 42) =     10.61525  eV     1   --> A              
     e( 43 - 44) =     10.76371  eV     2   --> E              
     e( 43 - 44) =     10.76371  eV     2   --> E*             
     e( 45 - 46) =     11.89537  eV     2   --> E              
     e( 45 - 46) =     11.89537  eV     2   --> E*             
     e( 47 - 47) =     11.90413  eV     1   --> A              
     e( 48 - 49) =     12.05059  eV     2   --> E              
     e( 48 - 49) =     12.05059  eV     2   --> E*             
     e( 50 - 50) =     12.18413  eV     1   --> A              
     e( 51 - 52) =     12.24317  eV     2   --> E              
     e( 51 - 52) =     12.24317  eV     2   --> E*             
     e( 53 - 53) =     12.48763  eV     1   --> A              
     e( 54 - 55) =     12.63569  eV     2   --> E              
     e( 54 - 55) =     12.63569  eV     2   --> E*             
     e( 56 - 56) =     12.67027  eV     1   --> A              
     e( 57 - 57) =     14.31052  eV     1   --> A              
     e( 58 - 58) =     14.59968  eV     1   --> A              
     e( 59 - 60) =     14.61298  eV     2   --> E              
     e( 59 - 60) =     14.61298  eV     2   --> E*             
     e( 61 - 62) =     15.10412  eV     2   --> E              
     e( 61 - 62) =     15.10412  eV     2   --> E*             
     e( 63 - 64) =     15.41571  eV     2   --> E              
     e( 63 - 64) =     15.41571  eV     2   --> E*             
     e( 65 - 65) =     15.81401  eV     1   --> A              
     e( 66 - 66) =     15.94129  eV     1   --> A              
     e( 67 - 68) =     16.19860  eV     2   --> E              
     e( 67 - 68) =     16.19860  eV     2   --> E*             
     e( 69 - 69) =     19.32227  eV     1   --> A              
     e( 70 - 71) =     19.47233  eV     2   --> E              
     e( 70 - 71) =     19.47233  eV     2   --> E*             
     e( 72 - 72) =     20.51030  eV     1   --> A              
     e( 73 - 73) =     20.57666  eV     1   --> A              
     e( 74 - 75) =     20.78283  eV     2   --> E              
     e( 74 - 75) =     20.78283  eV     2   --> E*             
     e( 76 - 77) =     21.04524  eV     2   --> E              
     e( 76 - 77) =     21.04524  eV     2   --> E*             
     e( 78 - 79) =     21.50901  eV     2   --> E              
     e( 78 - 79) =     21.50901  eV     2   --> E*             
     e( 80 - 80) =     21.66034  eV     1   --> A              
     e( 81 - 82) =     22.10990  eV     2   --> E              
     e( 81 - 82) =     22.10990  eV     2   --> E*             
     e( 83 - 84) =     22.58321  eV     2   --> E              
     e( 83 - 84) =     22.58321  eV     2   --> E*             
     e( 85 - 85) =     22.91506  eV     1   --> A              
     e( 86 - 87) =     23.73219  eV     2   --> E              
     e( 86 - 87) =     23.73219  eV     2   --> E*             
     e( 88 - 88) =     23.75388  eV     1   --> A              
     e( 89 - 89) =     25.45937  eV     1   --> A              
     e( 90 - 90) =     25.91386  eV     1   --> A              

 **************************************************************************

 **************************************************************************

                    xk=(   0.35000,   0.35000,   0.35000  )

     Band symmetry, C_3 (3)     point group:

     e(  1 -  4) =    -73.36130  eV     4   -->   2 A              
     e(  1 -  4) =    -73.36130  eV     4   --> E              
     e(  1 -  4) =    -73.36130  eV     4   --> E*             
     e(  5 -  5) =    -39.54362  eV     1   --> A              
     e(  6 -  7) =    -39.54326  eV     2   --> E              
     e(  6 -  7) =    -39.54326  eV     2   --> E*             
     e(  8 -  8) =    -39.54310  eV     1   --> A              
     e(  9 - 10) =    -39.54145  eV     2   --> E              
     e(  9 - 10) =    -39.54145  eV     2   --> E*             
     e( 11 - 12) =    -39.54105  eV     2   --> E              
     e( 11 - 12) =    -39.54105  eV     2   --> E*             
     e( 13 - 16) =    -39.29401  eV     4   -->   2 A              
     e( 13 - 16) =    -39.29401  eV     4   --> E              
     e( 13 - 16) =    -39.29401  eV     4   --> E*             
     e( 17 - 17) =     -2.90696  eV     1   --> A              
     e( 18 - 18) =     -2.33112  eV     1   --> A              
     e( 19 - 20) =     -2.31715  eV     2   --> E              
     e( 19 - 20) =     -2.31715  eV     2   --> E*             
     e( 21 - 22) =      0.37553  eV     2   --> E              
     e( 21 - 22) =      0.37553  eV     2   --> E*             
     e( 23 - 23) =      0.56322  eV     1   --> A              
     e( 24 - 24) =      0.68439  eV     1   --> A              
     e( 25 - 25) =      5.64817  eV     1   --> A              
     e( 26 - 27) =      6.12344  eV     2   --> E              
     e( 26 - 27) =      6.12344  eV     2   --> E*             
     e( 28 - 28) =      6.43135  eV     1   --> A              
     e( 29 - 30) =      7.13945  eV     2   --> E              
     e( 29 - 30) =      7.13945  eV     2   --> E*             
     e( 31 - 31) =      7.46874  eV     1   --> A              
     e( 32 - 33) =      8.27091  eV     2   --> E              
     e( 32 - 33) =      8.27091  eV     2   --> E*             
     e( 34 - 35) =      8.63745  eV     2   --> E              
     e( 34 - 35) =      8.63745  eV     2   --> E*             
     e( 36 - 36) =      8.68111  eV     1   --> A              
     e( 37 - 37) =      9.87509  eV     1   --> A              
     e( 38 - 39) =      9.91023  eV     2   --> E              
     e( 38 - 39) =      9.91023  eV     2   --> E*             
     e( 40 - 41) =     10.19489  eV     2   --> E              
     e( 40 - 41) =     10.19489  eV     2   --> E*             
     e( 42 - 42) =     10.52546  eV     1   --> A              
     e( 43 - 44) =     10.76920  eV     2   --> E              
     e( 43 - 44) =     10.76920  eV     2   --> E*             
     e( 45 - 46) =     11.94311  eV     2   --> E              
     e( 45 - 46) =     11.94311  eV     2   --> E*             
     e( 47 - 47) =     11.96330  eV     1   --> A              
     e( 48 - 49) =     12.09738  eV     2   --> E              
     e( 48 - 49) =     12.09738  eV     2   --> E*             
     e( 50 - 50) =     12.23022  eV     1   --> A              
     e( 51 - 52) =     12.32707  eV     2   --> E              
     e( 51 - 52) =     12.32707  eV     2   --> E*             
     e( 53 - 53) =     12.49281  eV     1   --> A              
     e( 54 - 55) =     12.66594  eV     2   --> E              
     e( 54 - 55) =     12.66594  eV     2   --> E*             
     e( 56 - 56) =     12.72049  eV     1   --> A              
     e( 57 - 57) =     14.29987  eV     1   --> A              
     e( 58 - 58) =     14.68426  eV     1   --> A              
     e( 59 - 60) =     14.71441  eV     2   --> E              
     e( 59 - 60) =     14.71441  eV     2   --> E*             
     e( 61 - 62) =     15.01879  eV     2   --> E              
     e( 61 - 62) =     15.01879  eV     2   --> E*             
     e( 63 - 64) =     15.46558  eV     2   --> E              
     e( 63 - 64) =     15.46558  eV     2   --> E*             
     e( 65 - 65) =     15.67506  eV     1   --> A              
     e( 66 - 66) =     15.87248  eV     1   --> A              
     e( 67 - 68) =     16.20117  eV     2   --> E              
     e( 67 - 68) =     16.20117  eV     2   --> E*             
     e( 69 - 69) =     19.27425  eV     1   --> A              
     e( 70 - 71) =     19.40440  eV     2   --> E              
     e( 70 - 71) =     19.40440  eV     2   --> E*             
     e( 72 - 72) =     20.38942  eV     1   --> A              
     e( 73 - 74) =     20.67055  eV     2   --> E              
     e( 73 - 74) =     20.67055  eV     2   --> E*             
     e( 75 - 75) =     20.80295  eV     1   --> A              
     e( 76 - 77) =     21.03961  eV     2   --> E              
     e( 76 - 77) =     21.03961  eV     2   --> E*             
     e( 78 - 79) =     21.53152  eV     2   --> E              
     e( 78 - 79) =     21.53152  eV     2   --> E*             
     e( 80 - 80) =     21.70040  eV     1   --> A              
     e( 81 - 82) =     22.21419  eV     2   --> E              
     e( 81 - 82) =     22.21419  eV     2   --> E*             
     e( 83 - 84) =     22.78180  eV     2   --> E              
     e( 83 - 84) =     22.78180  eV     2   --> E*             
     e( 85 - 85) =     22.83310  eV     1   --> A              
     e( 86 - 87) =     23.94329  eV     2   --> E              
     e( 86 - 87) =     23.94329  eV     2   --> E*             
     e( 88 - 88) =     23.98205  eV     1   --> A              
     e( 89 - 89) =     25.46170  eV     1   --> A              
     e( 90 - 90) =     25.96475  eV     1   --> A              

 **************************************************************************

 **************************************************************************

                    xk=(   0.32500,   0.32500,   0.32500  )

     Band symmetry, C_3 (3)     point group:

     e(  1 -  1) =    -73.36131  eV     1   --> A              
     e(  2 -  4) =    -73.36121  eV     3   --> A              
     e(  2 -  4) =    -73.36121  eV     3   --> E              
     e(  2 -  4) =    -73.36121  eV     3   --> E*             
     e(  5 -  5) =    -39.54359  eV     1   --> A              
     e(  6 -  7) =    -39.54317  eV     2   --> E              
     e(  6 -  7) =    -39.54317  eV     2   --> E*             
     e(  8 -  8) =    -39.54290  eV     1   --> A              
     e(  9 - 10) =    -39.54154  eV     2   --> E              
     e(  9 - 10) =    -39.54154  eV     2   --> E*             
     e( 11 - 12) =    -39.54105  eV     2   --> E              
     e( 11 - 12) =    -39.54105  eV     2   --> E*             
     e( 13 - 16) =    -39.29401  eV     4   -->   2 A              
     e( 13 - 16) =    -39.29401  eV     4   --> E              
     e( 13 - 16) =    -39.29401  eV     4   --> E*             
     e( 17 - 17) =     -3.04634  eV     1   --> A              
     e( 18 - 18) =     -2.31564  eV     1   --> A              
     e( 19 - 20) =     -2.29859  eV     2   --> E              
     e( 19 - 20) =     -2.29859  eV     2   --> E*             
     e( 21 - 22) =      0.41693  eV     2   --> E              
     e( 21 - 22) =      0.41693  eV     2   --> E*             
     e( 23 - 23) =      0.67288  eV     1   --> A              
     e( 24 - 24) =      0.77226  eV     1   --> A              
     e( 25 - 25) =      5.56976  eV     1   --> A              
     e( 26 - 27) =      6.04925  eV     2   --> E              
     e( 26 - 27) =      6.04925  eV     2   --> E*             
     e( 28 - 28) =      6.46861  eV     1   --> A              
     e( 29 - 30) =      7.11746  eV     2   --> E              
     e( 29 - 30) =      7.11746  eV     2   --> E*             
     e( 31 - 31) =      7.45251  eV     1   --> A              
     e( 32 - 33) =      8.23742  eV     2   --> E              
     e( 32 - 33) =      8.23742  eV     2   --> E*             
     e( 34 - 35) =      8.61010  eV     2   --> E              
     e( 34 - 35) =      8.61010  eV     2   --> E*             
     e( 36 - 36) =      8.92126  eV     1   --> A              
     e( 37 - 37) =      9.70089  eV     1   --> A              
     e( 38 - 39) =      9.79585  eV     2   --> E              
     e( 38 - 39) =      9.79585  eV     2   --> E*             
     e( 40 - 41) =     10.12579  eV     2   --> E              
     e( 40 - 41) =     10.12579  eV     2   --> E*             
     e( 42 - 42) =     10.42760  eV     1   --> A              
     e( 43 - 44) =     10.77862  eV     2   --> E              
     e( 43 - 44) =     10.77862  eV     2   --> E*             
     e( 45 - 46) =     11.99261  eV     2   --> E              
     e( 45 - 46) =     11.99261  eV     2   --> E*             
     e( 47 - 47) =     12.02031  eV     1   --> A              
     e( 48 - 49) =     12.13732  eV     2   --> E              
     e( 48 - 49) =     12.13732  eV     2   --> E*             
     e( 50 - 50) =     12.23079  eV     1   --> A              
     e( 51 - 52) =     12.39519  eV     2   --> E              
     e( 51 - 52) =     12.39519  eV     2   --> E*             
     e( 53 - 53) =     12.51919  eV     1   --> A              
     e( 54 - 55) =     12.68630  eV     2   --> E              
     e( 54 - 55) =     12.68630  eV     2   --> E*             
     e( 56 - 56) =     12.76526  eV     1   --> A              
     e( 57 - 57) =     14.28778  eV     1   --> A              
     e( 58 - 58) =     14.75709  eV     1   --> A              
     e( 59 - 60) =     14.81474  eV     2   --> E              
     e( 59 - 60) =     14.81474  eV     2   --> E*             
     e( 61 - 62) =     14.93143  eV     2   --> E              
     e( 61 - 62) =     14.93143  eV     2   --> E*             
     e( 63 - 64) =     15.52344  eV     2   --> E              
     e( 63 - 64) =     15.52344  eV     2   --> E*             
     e( 65 - 65) =     15.53073  eV     1   --> A              
     e( 66 - 66) =     15.83865  eV     1   --> A              
     e( 67 - 68) =     16.21129  eV     2   --> E              
     e( 67 - 68) =     16.21129  eV     2   --> E*             
     e( 69 - 69) =     19.26737  eV     1   --> A              
     e( 70 - 71) =     19.37037  eV     2   --> E              
     e( 70 - 71) =     19.37037  eV     2   --> E*             
     e( 72 - 72) =     20.26487  eV     1   --> A              
     e( 73 - 74) =     20.59910  eV     2   --> E              
     e( 73 - 74) =     20.59910  eV     2   --> E*             
     e( 75 - 76) =     21.05251  eV     2   --> E              
     e( 75 - 76) =     21.05251  eV     2   --> E*             
     e( 77 - 77) =     21.05697  eV     1   --> A              
     e( 78 - 79) =     21.53162  eV     2   --> E              
     e( 78 - 79) =     21.53162  eV     2   --> E*             
     e( 80 - 80) =     21.69872  eV     1   --> A              
     e( 81 - 82) =     22.33292  eV     2   --> E              
     e( 81 - 82) =     22.33292  eV     2   --> E*             
     e( 83 - 83) =     22.72654  eV     1   --> A              
     e( 84 - 85) =     22.98941  eV     2   --> E              
     e( 84 - 85) =     22.98941  eV     2   --> E*             
     e( 86 - 87) =     24.12066  eV     2   --> E              
     e( 86 - 87) =     24.12066  eV     2   --> E*             
     e( 88 - 88) =     24.16012  eV     1   --> A              
     e( 89 - 89) =     25.44348  eV     1   --> A              
     e( 90 - 90) =     25.88972  eV     1   -->   ?

 **************************************************************************

 **************************************************************************

                    xk=(   0.30000,   0.30000,   0.30000  )

     Band symmetry, C_3 (3)     point group:

     e(  1 -  1) =    -73.36131  eV     1   --> A              
     e(  2 -  4) =    -73.36119  eV     3   --> A              
     e(  2 -  4) =    -73.36119  eV     3   --> E              
     e(  2 -  4) =    -73.36119  eV     3   --> E*             
     e(  5 -  5) =    -39.54357  eV     1   --> A              
     e(  6 -  7) =    -39.54309  eV     2   --> E              
     e(  6 -  7) =    -39.54309  eV     2   --> E*             
     e(  8 -  8) =    -39.54267  eV     1   --> A              
     e(  9 - 10) =    -39.54164  eV     2   --> E              
     e(  9 - 10) =    -39.54164  eV     2   --> E*             
     e( 11 - 12) =    -39.54101  eV     2   --> E              
     e( 11 - 12) =    -39.54101  eV     2   --> E*             
     e( 13 - 13) =    -39.29401  eV     1   --> A              
     e( 14 - 16) =    -39.29387  eV     3   --> A              
     e( 14 - 16) =    -39.29387  eV     3   --> E              
     e( 14 - 16) =    -39.29387  eV     3   --> E*             
     e( 17 - 17) =     -3.18495  eV     1   --> A              
     e( 18 - 18) =     -2.29646  eV     1   --> A              
     e( 19 - 20) =     -2.27682  eV     2   --> E              
     e( 19 - 20) =     -2.27682  eV     2   --> E*             
     e( 21 - 22) =      0.45757  eV     2   --> E              
     e( 21 - 22) =      0.45757  eV     2   --> E*             
     e( 23 - 23) =      0.78761  eV     1   --> A              
     e( 24 - 24) =      0.84617  eV     1   --> A              
     e( 25 - 25) =      5.52508  eV     1   --> A              
     e( 26 - 27) =      5.98129  eV     2   --> E              
     e( 26 - 27) =      5.98129  eV     2   --> E*             
     e( 28 - 28) =      6.52141  eV     1   --> A              
     e( 29 - 30) =      7.10663  eV     2   --> E              
     e( 29 - 30) =      7.10663  eV     2   --> E*             
     e( 31 - 31) =      7.42590  eV     1   --> A              
     e( 32 - 33) =      8.18202  eV     2   --> E              
     e( 32 - 33) =      8.18202  eV     2   --> E*             
     e( 34 - 35) =      8.57440  eV     2   --> E              
     e( 34 - 35) =      8.57440  eV     2   --> E*             
     e( 36 - 36) =      9.12621  eV     1   --> A              
     e( 37 - 37) =      9.56129  eV     1   --> A              
     e( 38 - 39) =      9.68369  eV     2   --> E              
     e( 38 - 39) =      9.68369  eV     2   --> E*             
     e( 40 - 41) =     10.07120  eV     2   --> E              
     e( 40 - 41) =     10.07120  eV     2   --> E*             
     e( 42 - 42) =     10.32142  eV     1   --> A              
     e( 43 - 44) =     10.78803  eV     2   --> E              
     e( 43 - 44) =     10.78803  eV     2   --> E*             
     e( 45 - 46) =     12.04231  eV     2   --> E              
     e( 45 - 46) =     12.04231  eV     2   --> E*             
     e( 47 - 47) =     12.07442  eV     1   --> A              
     e( 48 - 49) =     12.17088  eV     2   --> E              
     e( 48 - 49) =     12.17088  eV     2   --> E*             
     e( 50 - 50) =     12.19760  eV     1   --> A              
     e( 51 - 52) =     12.44667  eV     2   --> E              
     e( 51 - 52) =     12.44667  eV     2   --> E*             
     e( 53 - 53) =     12.55914  eV     1   --> A              
     e( 54 - 55) =     12.69253  eV     2   --> E              
     e( 54 - 55) =     12.69253  eV     2   --> E*             
     e( 56 - 56) =     12.80162  eV     1   --> A              
     e( 57 - 57) =     14.27261  eV     1   --> A              
     e( 58 - 59) =     14.79691  eV     2   --> E              
     e( 58 - 59) =     14.79691  eV     2   --> E*             
     e( 60 - 60) =     14.80977  eV     1   --> A              
     e( 61 - 62) =     14.96416  eV     2   --> E              
     e( 61 - 62) =     14.96416  eV     2   --> E*             
     e( 63 - 63) =     15.38571  eV     1   --> A              
     e( 64 - 65) =     15.58786  eV     2   --> E              
     e( 64 - 65) =     15.58786  eV     2   --> E*             
     e( 66 - 66) =     15.85530  eV     1   --> A              
     e( 67 - 68) =     16.23047  eV     2   --> E              
     e( 67 - 68) =     16.23047  eV     2   --> E*             
     e( 69 - 69) =     19.29110  eV     1   --> A              
     e( 70 - 71) =     19.36960  eV     2   --> E              
     e( 70 - 71) =     19.36960  eV     2   --> E*             
     e( 72 - 72) =     20.15138  eV     1   --> A              
     e( 73 - 74) =     20.57520  eV     2   --> E              
     e( 73 - 74) =     20.57520  eV     2   --> E*             
     e( 75 - 76) =     21.08519  eV     2   --> E              
     e( 75 - 76) =     21.08519  eV     2   --> E*             
     e( 77 - 77) =     21.31965  eV     1   --> A              
     e( 78 - 79) =     21.51271  eV     2   --> E              
     e( 78 - 79) =     21.51271  eV     2   --> E*             
     e( 80 - 80) =     21.67016  eV     1   --> A              
     e( 81 - 82) =     22.45226  eV     2   --> E              
     e( 81 - 82) =     22.45226  eV     2   --> E*             
     e( 83 - 83) =     22.60998  eV     1   --> A              
     e( 84 - 85) =     23.20294  eV     2   --> E              
     e( 84 - 85) =     23.20294  eV     2   --> E*             
     e( 86 - 87) =     24.24279  eV     2   --> E              
     e( 86 - 87) =     24.24279  eV     2   --> E*             
     e( 88 - 88) =     24.27003  eV     1   --> A              
     e( 89 - 89) =     25.36815  eV     1   --> A              
     e( 90 - 90) =     25.86775  eV     1   -->   ?

 **************************************************************************

 **************************************************************************

                    xk=(   0.27500,   0.27500,   0.27500  )

     Band symmetry, C_3 (3)     point group:

     e(  1 -  4) =    -73.36132  eV     4   -->   2 A              
     e(  1 -  4) =    -73.36132  eV     4   --> E              
     e(  1 -  4) =    -73.36132  eV     4   --> E*             
     e(  5 -  5) =    -39.54371  eV     1   --> A              
     e(  6 -  7) =    -39.54314  eV     2   --> E              
     e(  6 -  7) =    -39.54314  eV     2   --> E*             
     e(  8 -  8) =    -39.54250  eV     1   --> A              
     e(  9 - 10) =    -39.54184  eV     2   --> E              
     e(  9 - 10) =    -39.54184  eV     2   --> E*             
     e( 11 - 12) =    -39.54109  eV     2   --> E              
     e( 11 - 12) =    -39.54109  eV     2   --> E*             
     e( 13 - 13) =    -39.29415  eV     1   --> A              
     e( 14 - 16) =    -39.29392  eV     3   --> A              
     e( 14 - 16) =    -39.29392  eV     3   --> E              
     e( 14 - 16) =    -39.29392  eV     3   --> E*             
     e( 17 - 17) =     -3.31963  eV     1   --> A              
     e( 18 - 18) =     -2.27351  eV     1   --> A              
     e( 19 - 20) =     -2.25200  eV     2   --> E              
     e( 19 - 20) =     -2.25200  eV     2   --> E*             
     e( 21 - 22) =      0.49514  eV     2   --> E              
     e( 21 - 22) =      0.49514  eV     2   --> E*             
     e( 23 - 23) =      0.86540  eV     1   --> A              
     e( 24 - 24) =      0.94167  eV     1   --> A              
     e( 25 - 25) =      5.51395  eV     1   --> A              
     e( 26 - 27) =      5.92601  eV     2   --> E              
     e( 26 - 27) =      5.92601  eV     2   --> E*             
     e( 28 - 28) =      6.59289  eV     1   --> A              
     e( 29 - 30) =      7.10272  eV     2   --> E              
     e( 29 - 30) =      7.10272  eV     2   --> E*             
     e( 31 - 31) =      7.38797  eV     1   --> A              
     e( 32 - 33) =      8.09784  eV     2   --> E              
     e( 32 - 33) =      8.09784  eV     2   --> E*             
     e( 34 - 35) =      8.55373  eV     2   --> E              
     e( 34 - 35) =      8.55373  eV     2   --> E*             
     e( 36 - 36) =      9.22868  eV     1   --> A              
     e( 37 - 37) =      9.51436  eV     1   --> A              
     e( 38 - 39) =      9.57163  eV     2   --> E              
     e( 38 - 39) =      9.57163  eV     2   --> E*             
     e( 40 - 41) =     10.02075  eV     2   --> E              
     e( 40 - 41) =     10.02075  eV     2   --> E*             
     e( 42 - 42) =     10.20886  eV     1   --> A              
     e( 43 - 44) =     10.79300  eV     2   --> E              
     e( 43 - 44) =     10.79300  eV     2   --> E*             
     e( 45 - 46) =     12.09000  eV     2   --> E              
     e( 45 - 46) =     12.09000  eV     2   --> E*             
     e( 47 - 47) =     12.12367  eV     1   --> A              
     e( 48 - 48) =     12.15082  eV     1   --> A              
     e( 49 - 50) =     12.19852  eV     2   --> E              
     e( 49 - 50) =     12.19852  eV     2   --> E*             
     e( 51 - 52) =     12.48172  eV     2   --> E              
     e( 51 - 52) =     12.48172  eV     2   --> E*             
     e( 53 - 53) =     12.59896  eV     1   --> A              
     e( 54 - 55) =     12.68334  eV     2   --> E              
     e( 54 - 55) =     12.68334  eV     2   --> E*             
     e( 56 - 56) =     12.82930  eV     1   --> A              
     e( 57 - 57) =     14.25167  eV     1   --> A              
     e( 58 - 59) =     14.70110  eV     2   --> E              
     e( 58 - 59) =     14.70110  eV     2   --> E*             
     e( 60 - 60) =     14.84394  eV     1   --> A              
     e( 61 - 62) =     15.08528  eV     2   --> E              
     e( 61 - 62) =     15.08528  eV     2   --> E*             
     e( 63 - 63) =     15.24805  eV     1   --> A              
     e( 64 - 65) =     15.65653  eV     2   --> E              
     e( 64 - 65) =     15.65653  eV     2   --> E*             
     e( 66 - 66) =     15.92027  eV     1   --> A              
     e( 67 - 68) =     16.25820  eV     2   --> E              
     e( 67 - 68) =     16.25820  eV     2   --> E*             
     e( 69 - 69) =     19.32931  eV     1   --> A              
     e( 70 - 71) =     19.40093  eV     2   --> E              
     e( 70 - 71) =     19.40093  eV     2   --> E*             
     e( 72 - 72) =     20.06246  eV     1   --> A              
     e( 73 - 74) =     20.59899  eV     2   --> E              
     e( 73 - 74) =     20.59899  eV     2   --> E*             
     e( 75 - 76) =     21.13468  eV     2   --> E              
     e( 75 - 76) =     21.13468  eV     2   --> E*             
     e( 77 - 78) =     21.47977  eV     2   --> E              
     e( 77 - 78) =     21.47977  eV     2   --> E*             
     e( 79 - 79) =     21.55637  eV     1   --> A              
     e( 80 - 80) =     21.64597  eV     1   --> A              
     e( 81 - 81) =     22.50672  eV     1   --> A              
     e( 82 - 83) =     22.55689  eV     2   --> E              
     e( 82 - 83) =     22.55689  eV     2   --> E*             
     e( 84 - 85) =     23.41374  eV     2   --> E              
     e( 84 - 85) =     23.41374  eV     2   --> E*             
     e( 86 - 87) =     24.31492  eV     2   --> E              
     e( 86 - 87) =     24.31492  eV     2   --> E*             
     e( 88 - 88) =     24.32400  eV     1   --> A              
     e( 89 - 89) =     25.21145  eV     1   --> A              
     e( 90 - 90) =     25.87488  eV     1   -->   ?

 **************************************************************************

 **************************************************************************

                    xk=(   0.25000,   0.25000,   0.25000  )

     Band symmetry, C_3 (3)     point group:

     e(  1 -  1) =    -73.36137  eV     1   --> A              
     e(  2 -  4) =    -73.36122  eV     3   --> A              
     e(  2 -  4) =    -73.36122  eV     3   --> E              
     e(  2 -  4) =    -73.36122  eV     3   --> E*             
     e(  5 -  5) =    -39.54374  eV     1   --> A              
     e(  6 -  7) =    -39.54314  eV     2   --> E              
     e(  6 -  7) =    -39.54314  eV     2   --> E*             
     e(  8 -  8) =    -39.54232  eV     1   --> A              
     e(  9 - 10) =    -39.54194  eV     2   --> E              
     e(  9 - 10) =    -39.54194  eV     2   --> E*             
     e( 11 - 12) =    -39.54117  eV     2   --> E              
     e( 11 - 12) =    -39.54117  eV     2   --> E*             
     e( 13 - 13) =    -39.29417  eV     1   --> A              
     e( 14 - 16) =    -39.29394  eV     3   --> A              
     e( 14 - 16) =    -39.29394  eV     3   --> E              
     e( 14 - 16) =    -39.29394  eV     3   --> E*             
     e( 17 - 17) =     -3.44795  eV     1   --> A              
     e( 18 - 18) =     -2.24692  eV     1   --> A              
     e( 19 - 20) =     -2.22443  eV     2   --> E              
     e( 19 - 20) =     -2.22443  eV     2   --> E*             
     e( 21 - 22) =      0.52761  eV     2   --> E              
     e( 21 - 22) =      0.52761  eV     2   --> E*             
     e( 23 - 23) =      0.88907  eV     1   --> A              
     e( 24 - 24) =      1.07212  eV     1   --> A              
     e( 25 - 25) =      5.53361  eV     1   --> A              
     e( 26 - 27) =      5.88831  eV     2   --> E              
     e( 26 - 27) =      5.88831  eV     2   --> E*             
     e( 28 - 28) =      6.68566  eV     1   --> A              
     e( 29 - 30) =      7.10216  eV     2   --> E              
     e( 29 - 30) =      7.10216  eV     2   --> E*             
     e( 31 - 31) =      7.33916  eV     1   --> A              
     e( 32 - 33) =      7.99092  eV     2   --> E              
     e( 32 - 33) =      7.99092  eV     2   --> E*             
     e( 34 - 35) =      8.55644  eV     2   --> E              
     e( 34 - 35) =      8.55644  eV     2   --> E*             
     e( 36 - 36) =      9.18141  eV     1   --> A              
     e( 37 - 38) =      9.46121  eV     2   --> E              
     e( 37 - 38) =      9.46121  eV     2   --> E*             
     e( 39 - 39) =      9.58688  eV     1   --> A              
     e( 40 - 41) =      9.96283  eV     2   --> E              
     e( 40 - 41) =      9.96283  eV     2   --> E*             
     e( 42 - 42) =     10.10262  eV     1   --> A              
     e( 43 - 44) =     10.78905  eV     2   --> E              
     e( 43 - 44) =     10.78905  eV     2   --> E*             
     e( 45 - 45) =     12.09539  eV     1   --> A              
     e( 46 - 47) =     12.13363  eV     2   --> E              
     e( 46 - 47) =     12.13363  eV     2   --> E*             
     e( 48 - 48) =     12.17808  eV     1   --> A              
     e( 49 - 50) =     12.22003  eV     2   --> E              
     e( 49 - 50) =     12.22003  eV     2   --> E*             
     e( 51 - 52) =     12.50122  eV     2   --> E              
     e( 51 - 52) =     12.50122  eV     2   --> E*             
     e( 53 - 53) =     12.63007  eV     1   --> A              
     e( 54 - 55) =     12.66167  eV     2   --> E              
     e( 54 - 55) =     12.66167  eV     2   --> E*             
     e( 56 - 56) =     12.84950  eV     1   --> A              
     e( 57 - 57) =     14.22231  eV     1   --> A              
     e( 58 - 59) =     14.61122  eV     2   --> E              
     e( 58 - 59) =     14.61122  eV     2   --> E*             
     e( 60 - 60) =     14.86091  eV     1   --> A              
     e( 61 - 61) =     15.13664  eV     1   --> A              
     e( 62 - 63) =     15.22021  eV     2   --> E              
     e( 62 - 63) =     15.22021  eV     2   --> E*             
     e( 64 - 65) =     15.72722  eV     2   --> E              
     e( 64 - 65) =     15.72722  eV     2   --> E*             
     e( 66 - 66) =     16.01556  eV     1   --> A              
     e( 67 - 68) =     16.29202  eV     2   --> E              
     e( 67 - 68) =     16.29202  eV     2   --> E*             
     e( 69 - 69) =     19.36079  eV     1   --> A              
     e( 70 - 71) =     19.46434  eV     2   --> E              
     e( 70 - 71) =     19.46434  eV     2   --> E*             
     e( 72 - 72) =     20.01926  eV     1   --> A              
     e( 73 - 74) =     20.66540  eV     2   --> E              
     e( 73 - 74) =     20.66540  eV     2   --> E*             
     e( 75 - 76) =     21.18781  eV     2   --> E              
     e( 75 - 76) =     21.18781  eV     2   --> E*             
     e( 77 - 78) =     21.44360  eV     2   --> E              
     e( 77 - 78) =     21.44360  eV     2   --> E*             
     e( 79 - 79) =     21.56779  eV     1   --> A              
     e( 80 - 80) =     21.81272  eV     1   --> A              
     e( 81 - 81) =     22.44275  eV     1   --> A              
     e( 82 - 83) =     22.63239  eV     2   --> E              
     e( 82 - 83) =     22.63239  eV     2   --> E*             
     e( 84 - 85) =     23.60469  eV     2   --> E              
     e( 84 - 85) =     23.60469  eV     2   --> E*             
     e( 86 - 86) =     24.34165  eV     1   --> A              
     e( 87 - 88) =     24.37667  eV     2   --> E              
     e( 87 - 88) =     24.37667  eV     2   --> E*             
     e( 89 - 89) =     24.98879  eV     1   --> A              
     e( 90 - 90) =     25.85579  eV     1   -->   ?

 **************************************************************************

 **************************************************************************

                    xk=(   0.22500,   0.22500,   0.22500  )

     Band symmetry, C_3 (3)     point group:

     e(  1 -  1) =    -73.36140  eV     1   --> A              
     e(  2 -  4) =    -73.36122  eV     3   --> A              
     e(  2 -  4) =    -73.36122  eV     3   --> E              
     e(  2 -  4) =    -73.36122  eV     3   --> E*             
     e(  5 -  5) =    -39.54381  eV     1   --> A              
     e(  6 -  7) =    -39.54318  eV     2   --> E              
     e(  6 -  7) =    -39.54318  eV     2   --> E*             
     e(  8 -  8) =    -39.54216  eV     1   --> A              
     e(  9 - 10) =    -39.54195  eV     2   --> E              
     e(  9 - 10) =    -39.54195  eV     2   --> E*             
     e( 11 - 12) =    -39.54121  eV     2   --> E              
     e( 11 - 12) =    -39.54121  eV     2   --> E*             
     e( 13 - 13) =    -39.29421  eV     1   --> A              
     e( 14 - 16) =    -39.29397  eV     3   --> A              
     e( 14 - 16) =    -39.29397  eV     3   --> E              
     e( 14 - 16) =    -39.29397  eV     3   --> E*             
     e( 17 - 17) =     -3.56802  eV     1   --> A              
     e( 18 - 18) =     -2.21709  eV     1   --> A              
     e( 19 - 20) =     -2.19458  eV     2   --> E              
     e( 19 - 20) =     -2.19458  eV     2   --> E*             
     e( 21 - 22) =      0.55340  eV     2   --> E              
     e( 21 - 22) =      0.55340  eV     2   --> E*             
     e( 23 - 23) =      0.88500  eV     1   --> A              
     e( 24 - 24) =      1.20967  eV     1   --> A              
     e( 25 - 25) =      5.57935  eV     1   --> A              
     e( 26 - 27) =      5.87134  eV     2   --> E              
     e( 26 - 27) =      5.87134  eV     2   --> E*             
     e( 28 - 28) =      6.80099  eV     1   --> A              
     e( 29 - 30) =      7.10211  eV     2   --> E              
     e( 29 - 30) =      7.10211  eV     2   --> E*             
     e( 31 - 31) =      7.28165  eV     1   --> A              
     e( 32 - 33) =      7.87522  eV     2   --> E              
     e( 32 - 33) =      7.87522  eV     2   --> E*             
     e( 34 - 35) =      8.57837  eV     2   --> E              
     e( 34 - 35) =      8.57837  eV     2   --> E*             
     e( 36 - 36) =      9.09633  eV     1   --> A              
     e( 37 - 38) =      9.35520  eV     2   --> E              
     e( 37 - 38) =      9.35520  eV     2   --> E*             
     e( 39 - 39) =      9.61783  eV     1   --> A              
     e( 40 - 41) =      9.88964  eV     2   --> E              
     e( 40 - 41) =      9.88964  eV     2   --> E*             
     e( 42 - 42) =     10.04559  eV     1   --> A              
     e( 43 - 44) =     10.77266  eV     2   --> E              
     e( 43 - 44) =     10.77266  eV     2   --> E*             
     e( 45 - 45) =     12.05171  eV     1   --> A              
     e( 46 - 47) =     12.16949  eV     2   --> E              
     e( 46 - 47) =     12.16949  eV     2   --> E*             
     e( 48 - 48) =     12.22712  eV     1   --> A              
     e( 49 - 50) =     12.23426  eV     2   --> E              
     e( 49 - 50) =     12.23426  eV     2   --> E*             
     e( 51 - 52) =     12.50665  eV     2   --> E              
     e( 51 - 52) =     12.50665  eV     2   --> E*             
     e( 53 - 54) =     12.63488  eV     2   --> E              
     e( 53 - 54) =     12.63488  eV     2   --> E*             
     e( 55 - 55) =     12.64795  eV     1   --> A              
     e( 56 - 56) =     12.86273  eV     1   --> A              
     e( 57 - 57) =     14.18255  eV     1   --> A              
     e( 58 - 59) =     14.53775  eV     2   --> E              
     e( 58 - 59) =     14.53775  eV     2   --> E*             
     e( 60 - 60) =     14.83334  eV     1   --> A              
     e( 61 - 61) =     15.09702  eV     1   --> A              
     e( 62 - 63) =     15.36481  eV     2   --> E              
     e( 62 - 63) =     15.36481  eV     2   --> E*             
     e( 64 - 65) =     15.79851  eV     2   --> E              
     e( 64 - 65) =     15.79851  eV     2   --> E*             
     e( 66 - 66) =     16.11860  eV     1   --> A              
     e( 67 - 68) =     16.32809  eV     2   --> E              
     e( 67 - 68) =     16.32809  eV     2   --> E*             
     e( 69 - 69) =     19.37015  eV     1   --> A              
     e( 70 - 71) =     19.56039  eV     2   --> E              
     e( 70 - 71) =     19.56039  eV     2   --> E*             
     e( 72 - 72) =     20.04138  eV     1   --> A              
     e( 73 - 74) =     20.76450  eV     2   --> E              
     e( 73 - 74) =     20.76450  eV     2   --> E*             
     e( 75 - 76) =     21.20670  eV     2   --> E              
     e( 75 - 76) =     21.20670  eV     2   --> E*             
     e( 77 - 78) =     21.43724  eV     2   --> E              
     e( 77 - 78) =     21.43724  eV     2   --> E*             
     e( 79 - 79) =     21.54137  eV     1   --> A              
     e( 80 - 80) =     21.95717  eV     1   --> A              
     e( 81 - 81) =     22.44123  eV     1   --> A              
     e( 82 - 83) =     22.67040  eV     2   --> E              
     e( 82 - 83) =     22.67040  eV     2   --> E*             
     e( 84 - 85) =     23.75467  eV     2   --> E              
     e( 84 - 85) =     23.75467  eV     2   --> E*             
     e( 86 - 86) =     24.33681  eV     1   --> A              
     e( 87 - 88) =     24.47563  eV     2   --> E              
     e( 87 - 88) =     24.47563  eV     2   --> E*             
     e( 89 - 89) =     24.74082  eV     1   --> A              
     e( 90 - 90) =     25.79362  eV     1   -->   ?

 **************************************************************************

 **************************************************************************

                    xk=(   0.20000,   0.20000,   0.20000  )

     Band symmetry, C_3 (3)     point group:

     e(  1 -  1) =    -73.36138  eV     1   --> A              
     e(  2 -  4) =    -73.36122  eV     3   --> A              
     e(  2 -  4) =    -73.36122  eV     3   --> E              
     e(  2 -  4) =    -73.36122  eV     3   --> E*             
     e(  5 -  5) =    -39.54379  eV     1   --> A              
     e(  6 -  7) =    -39.54325  eV     2   --> E              
     e(  6 -  7) =    -39.54325  eV     2   --> E*             
     e(  8 -  9) =    -39.54201  eV     2   --> E              
     e(  8 -  9) =    -39.54201  eV     2   --> E*             
     e( 10 - 10) =    -39.54180  eV     1   --> A              
     e( 11 - 12) =    -39.54121  eV     2   --> E              
     e( 11 - 12) =    -39.54121  eV     2   --> E*             
     e( 13 - 13) =    -39.29427  eV     1   --> A              
     e( 14 - 15) =    -39.29394  eV     2   --> E              
     e( 14 - 15) =    -39.29394  eV     2   --> E*             
     e( 16 - 16) =    -39.29383  eV     1   --> A              
     e( 17 - 17) =     -3.67840  eV     1   --> A              
     e( 18 - 18) =     -2.18464  eV     1   --> A              
     e( 19 - 20) =     -2.16314  eV     2   --> E              
     e( 19 - 20) =     -2.16314  eV     2   --> E*             
     e( 21 - 22) =      0.57159  eV     2   --> E              
     e( 21 - 22) =      0.57159  eV     2   --> E*             
     e( 23 - 23) =      0.86026  eV     1   --> A              
     e( 24 - 24) =      1.34766  eV     1   --> A              
     e( 25 - 25) =      5.64554  eV     1   --> A              
     e( 26 - 27) =      5.87642  eV     2   --> E              
     e( 26 - 27) =      5.87642  eV     2   --> E*             
     e( 28 - 28) =      6.93715  eV     1   --> A              
     e( 29 - 30) =      7.10029  eV     2   --> E              
     e( 29 - 30) =      7.10029  eV     2   --> E*             
     e( 31 - 31) =      7.22012  eV     1   --> A              
     e( 32 - 33) =      7.76388  eV     2   --> E              
     e( 32 - 33) =      7.76388  eV     2   --> E*             
     e( 34 - 35) =      8.61093  eV     2   --> E              
     e( 34 - 35) =      8.61093  eV     2   --> E*             
     e( 36 - 36) =      9.01256  eV     1   --> A              
     e( 37 - 38) =      9.25718  eV     2   --> E              
     e( 37 - 38) =      9.25718  eV     2   --> E*             
     e( 39 - 39) =      9.53217  eV     1   --> A              
     e( 40 - 41) =      9.79861  eV     2   --> E              
     e( 40 - 41) =      9.79861  eV     2   --> E*             
     e( 42 - 42) =     10.07155  eV     1   --> A              
     e( 43 - 44) =     10.74222  eV     2   --> E              
     e( 43 - 44) =     10.74222  eV     2   --> E*             
     e( 45 - 45) =     12.01838  eV     1   --> A              
     e( 46 - 47) =     12.18420  eV     2   --> E              
     e( 46 - 47) =     12.18420  eV     2   --> E*             
     e( 48 - 49) =     12.24733  eV     2   --> E              
     e( 48 - 49) =     12.24733  eV     2   --> E*             
     e( 50 - 50) =     12.27670  eV     1   --> A              
     e( 51 - 52) =     12.50310  eV     2   --> E              
     e( 51 - 52) =     12.50310  eV     2   --> E*             
     e( 53 - 54) =     12.61155  eV     2   --> E              
     e( 53 - 54) =     12.61155  eV     2   --> E*             
     e( 55 - 55) =     12.65174  eV     1   --> A              
     e( 56 - 56) =     12.86886  eV     1   --> A              
     e( 57 - 57) =     14.13182  eV     1   --> A              
     e( 58 - 59) =     14.48446  eV     2   --> E              
     e( 58 - 59) =     14.48446  eV     2   --> E*             
     e( 60 - 60) =     14.75268  eV     1   --> A              
     e( 61 - 61) =     15.14806  eV     1   --> A              
     e( 62 - 63) =     15.51540  eV     2   --> E              
     e( 62 - 63) =     15.51540  eV     2   --> E*             
     e( 64 - 65) =     15.87103  eV     2   --> E              
     e( 64 - 65) =     15.87103  eV     2   --> E*             
     e( 66 - 66) =     16.21054  eV     1   --> A              
     e( 67 - 68) =     16.36272  eV     2   --> E              
     e( 67 - 68) =     16.36272  eV     2   --> E*             
     e( 69 - 69) =     19.36607  eV     1   --> A              
     e( 70 - 71) =     19.68855  eV     2   --> E              
     e( 70 - 71) =     19.68855  eV     2   --> E*             
     e( 72 - 72) =     20.12774  eV     1   --> A              
     e( 73 - 74) =     20.87325  eV     2   --> E              
     e( 73 - 74) =     20.87325  eV     2   --> E*             
     e( 75 - 76) =     21.17058  eV     2   --> E              
     e( 75 - 76) =     21.17058  eV     2   --> E*             
     e( 77 - 78) =     21.48654  eV     2   --> E              
     e( 77 - 78) =     21.48654  eV     2   --> E*             
     e( 79 - 79) =     21.54095  eV     1   --> A              
     e( 80 - 80) =     22.01338  eV     1   --> A              
     e( 81 - 81) =     22.48153  eV     1   --> A              
     e( 82 - 83) =     22.67572  eV     2   --> E              
     e( 82 - 83) =     22.67572  eV     2   --> E*             
     e( 84 - 85) =     23.85651  eV     2   --> E              
     e( 84 - 85) =     23.85651  eV     2   --> E*             
     e( 86 - 86) =     24.31952  eV     1   --> A              
     e( 87 - 87) =     24.51352  eV     1   --> A              
     e( 88 - 89) =     24.62057  eV     2   --> E              
     e( 88 - 89) =     24.62057  eV     2   --> E*             
     e( 90 - 90) =     25.73839  eV     1   -->   ?

 **************************************************************************

 **************************************************************************

                    xk=(   0.17500,   0.17500,   0.17500  )

     Band symmetry, C_3 (3)     point group:

     e(  1 -  1) =    -73.36146  eV     1   --> A              
     e(  2 -  4) =    -73.36120  eV     3   --> A              
     e(  2 -  4) =    -73.36120  eV     3   --> E              
     e(  2 -  4) =    -73.36120  eV     3   --> E*             
     e(  5 -  5) =    -39.54379  eV     1   --> A              
     e(  6 -  7) =    -39.54328  eV     2   --> E              
     e(  6 -  7) =    -39.54328  eV     2   --> E*             
     e(  8 -  9) =    -39.54198  eV     2   --> E              
     e(  8 -  9) =    -39.54198  eV     2   --> E*             
     e( 10 - 10) =    -39.54178  eV     1   --> A              
     e( 11 - 12) =    -39.54128  eV     2   --> E              
     e( 11 - 12) =    -39.54128  eV     2   --> E*             
     e( 13 - 13) =    -39.29429  eV     1   --> A              
     e( 14 - 15) =    -39.29395  eV     2   --> E              
     e( 14 - 15) =    -39.29395  eV     2   --> E*             
     e( 16 - 16) =    -39.29384  eV     1   --> A              
     e( 17 - 17) =     -3.77794  eV     1   --> A              
     e( 18 - 18) =     -2.15051  eV     1   --> A              
     e( 19 - 20) =     -2.13098  eV     2   --> E              
     e( 19 - 20) =     -2.13098  eV     2   --> E*             
     e( 21 - 22) =      0.58202  eV     2   --> E              
     e( 21 - 22) =      0.58202  eV     2   --> E*             
     e( 23 - 23) =      0.82035  eV     1   --> A              
     e( 24 - 24) =      1.48203  eV     1   --> A              
     e( 25 - 25) =      5.72671  eV     1   --> A              
     e( 26 - 27) =      5.90292  eV     2   --> E              
     e( 26 - 27) =      5.90292  eV     2   --> E*             
     e( 28 - 28) =      7.07484  eV     1   --> A              
     e( 29 - 30) =      7.09458  eV     2   --> E              
     e( 29 - 30) =      7.09458  eV     2   --> E*             
     e( 31 - 31) =      7.17523  eV     1   --> A              
     e( 32 - 33) =      7.66744  eV     2   --> E              
     e( 32 - 33) =      7.66744  eV     2   --> E*             
     e( 34 - 35) =      8.64128  eV     2   --> E              
     e( 34 - 35) =      8.64128  eV     2   --> E*             
     e( 36 - 36) =      8.92677  eV     1   --> A              
     e( 37 - 38) =      9.17341  eV     2   --> E              
     e( 37 - 38) =      9.17341  eV     2   --> E*             
     e( 39 - 39) =      9.38530  eV     1   --> A              
     e( 40 - 41) =      9.69264  eV     2   --> E              
     e( 40 - 41) =      9.69264  eV     2   --> E*             
     e( 42 - 42) =     10.13155  eV     1   --> A              
     e( 43 - 44) =     10.69805  eV     2   --> E              
     e( 43 - 44) =     10.69805  eV     2   --> E*             
     e( 45 - 45) =     11.99379  eV     1   --> A              
     e( 46 - 47) =     12.15883  eV     2   --> E              
     e( 46 - 47) =     12.15883  eV     2   --> E*             
     e( 48 - 49) =     12.27267  eV     2   --> E              
     e( 48 - 49) =     12.27267  eV     2   --> E*             
     e( 50 - 50) =     12.32657  eV     1   --> A              
     e( 51 - 52) =     12.50055  eV     2   --> E              
     e( 51 - 52) =     12.50055  eV     2   --> E*             
     e( 53 - 54) =     12.59500  eV     2   --> E              
     e( 53 - 54) =     12.59500  eV     2   --> E*             
     e( 55 - 55) =     12.64309  eV     1   --> A              
     e( 56 - 56) =     12.86821  eV     1   --> A              
     e( 57 - 57) =     14.06898  eV     1   --> A              
     e( 58 - 59) =     14.45108  eV     2   --> E              
     e( 58 - 59) =     14.45108  eV     2   --> E*             
     e( 60 - 60) =     14.66103  eV     1   --> A              
     e( 61 - 61) =     15.25112  eV     1   --> A              
     e( 62 - 63) =     15.66360  eV     2   --> E              
     e( 62 - 63) =     15.66360  eV     2   --> E*             
     e( 64 - 65) =     15.94831  eV     2   --> E              
     e( 64 - 65) =     15.94831  eV     2   --> E*             
     e( 66 - 66) =     16.27942  eV     1   --> A              
     e( 67 - 68) =     16.39424  eV     2   --> E              
     e( 67 - 68) =     16.39424  eV     2   --> E*             
     e( 69 - 69) =     19.37197  eV     1   --> A              
     e( 70 - 71) =     19.84451  eV     2   --> E              
     e( 70 - 71) =     19.84451  eV     2   --> E*             
     e( 72 - 72) =     20.26224  eV     1   --> A              
     e( 73 - 74) =     20.90622  eV     2   --> E              
     e( 73 - 74) =     20.90622  eV     2   --> E*             
     e( 75 - 76) =     21.18454  eV     2   --> E              
     e( 75 - 76) =     21.18454  eV     2   --> E*             
     e( 77 - 78) =     21.55704  eV     2   --> E              
     e( 77 - 78) =     21.55704  eV     2   --> E*             
     e( 79 - 79) =     21.57483  eV     1   --> A              
     e( 80 - 80) =     22.02027  eV     1   --> A              
     e( 81 - 81) =     22.48081  eV     1   --> A              
     e( 82 - 83) =     22.66490  eV     2   --> E              
     e( 82 - 83) =     22.66490  eV     2   --> E*             
     e( 84 - 85) =     23.91576  eV     2   --> E              
     e( 84 - 85) =     23.91576  eV     2   --> E*             
     e( 86 - 86) =     24.27570  eV     1   --> A              
     e( 87 - 87) =     24.37134  eV     1   --> A              
     e( 88 - 89) =     24.77211  eV     2   --> E              
     e( 88 - 89) =     24.77211  eV     2   --> E*             
     e( 90 - 90) =     25.71453  eV     1   -->   ?

 **************************************************************************

[...]
     e( 39 - 39) =      9.15597  eV     1   --> A''            
     e( 40 - 40) =      9.34781  eV     1   --> A'             
     e( 41 - 41) =      9.42645  eV     1   --> A'             
     e( 42 - 42) =     10.24507  eV     1   --> A''            
     e( 43 - 43) =     10.35222  eV     1   --> A'             
     e( 44 - 44) =     10.46212  eV     1   --> A'             
     e( 45 - 45) =     11.85503  eV     1   --> A''            
     e( 46 - 46) =     11.86566  eV     1   --> A''            
     e( 47 - 47) =     11.90698  eV     1   --> A'             
     e( 48 - 48) =     12.37885  eV     1   --> A'             
     e( 49 - 49) =     12.40735  eV     1   --> A'             
     e( 50 - 50) =     12.51564  eV     1   --> A''            
     e( 51 - 51) =     12.52498  eV     1   --> A'             
     e( 52 - 52) =     12.54621  eV     1   --> A''            
     e( 53 - 53) =     12.56696  eV     1   --> A''            
     e( 54 - 54) =     12.56726  eV     1   --> A'             
     e( 55 - 55) =     12.57098  eV     1   --> A''            
     e( 56 - 56) =     12.83552  eV     1   --> A'             
     e( 57 - 57) =     13.63022  eV     1   --> A''            
     e( 58 - 58) =     14.43634  eV     1   --> A'             
     e( 59 - 59) =     14.44739  eV     1   --> A''            
     e( 60 - 60) =     14.46416  eV     1   --> A''            
     e( 61 - 61) =     15.91106  eV     1   --> A'             
     e( 62 - 62) =     16.01044  eV     1   --> A''            
     e( 63 - 63) =     16.08567  eV     1   --> A'             
     e( 64 - 64) =     16.21569  eV     1   --> A''            
     e( 65 - 65) =     16.27771  eV     1   --> A'             
     e( 66 - 66) =     16.30946  eV     1   --> A''            
     e( 67 - 67) =     16.62546  eV     1   --> A'             
     e( 68 - 68) =     16.76602  eV     1   --> A'             
     e( 69 - 69) =     19.75251  eV     1   --> A'             
     e( 70 - 70) =     19.84713  eV     1   --> A''            
     e( 71 - 71) =     20.05786  eV     1   --> A'             
     e( 72 - 72) =     21.02982  eV     1   --> A''            
     e( 73 - 73) =     21.26798  eV     1   --> A''            
     e( 74 - 74) =     21.28310  eV     1   --> A'             
     e( 75 - 75) =     21.45965  eV     1   --> A'             
     e( 76 - 76) =     21.55201  eV     1   --> A''            
     e( 77 - 77) =     21.63615  eV     1   --> A'             
     e( 78 - 78) =     21.82821  eV     1   --> A''            
     e( 79 - 79) =     22.00515  eV     1   --> A'             
     e( 80 - 80) =     22.07054  eV     1   --> A''            
     e( 81 - 81) =     22.38472  eV     1   --> A'             
     e( 82 - 82) =     22.46661  eV     1   --> A''            
     e( 83 - 83) =     22.55183  eV     1   --> A''            
     e( 84 - 84) =     23.56283  eV     1   --> A'             
     e( 85 - 85) =     23.74243  eV     1   --> A'             
     e( 86 - 86) =     23.85259  eV     1   --> A''            
     e( 87 - 87) =     24.37917  eV     1   --> A''            
     e( 88 - 88) =     24.67142  eV     1   --> A''            
     e( 89 - 89) =     24.80056  eV     1   --> A'             
     e( 90 - 90) =     24.90288  eV     1   --> A''            

 **************************************************************************

 **************************************************************************

                    xk=(   0.05000,   0.05000,   0.00000  )

     Band symmetry, C_s (m)     point group:

     e(  1 -  1) =    -73.36158  eV     1   --> A'             
     e(  2 -  4) =    -73.36122  eV     3   --> A'             
     e(  2 -  4) =    -73.36122  eV     3   -->   2 A''            
     e(  5 -  7) =    -39.54389  eV     3   -->   2 A'             
     e(  5 -  7) =    -39.54389  eV     3   --> A''            
     e(  8 -  9) =    -39.54205  eV     2   -->   2 A''            
     e( 10 - 12) =    -39.54139  eV     3   -->   2 A'             
     e( 10 - 12) =    -39.54139  eV     3   --> A''            
     e( 13 - 13) =    -39.29455  eV     1   --> A''            
     e( 14 - 16) =    -39.29402  eV     3   -->   2 A'             
     e( 14 - 16) =    -39.29402  eV     3   --> A''            
     e( 17 - 17) =     -4.09679  eV     1   --> A'             
     e( 18 - 18) =     -2.00485  eV     1   --> A''            
     e( 19 - 19) =     -2.00461  eV     1   --> A'             
     e( 20 - 20) =     -1.98157  eV     1   --> A''            
     e( 21 - 21) =      0.55548  eV     1   --> A'             
     e( 22 - 22) =      0.56597  eV     1   --> A''            
     e( 23 - 23) =      0.57124  eV     1   --> A'             
     e( 24 - 24) =      1.98563  eV     1   --> A''            
     e( 25 - 25) =      6.18706  eV     1   --> A''            
     e( 26 - 26) =      6.19193  eV     1   --> A'             
     e( 27 - 27) =      6.22419  eV     1   --> A''            
     e( 28 - 28) =      6.92718  eV     1   --> A'             
     e( 29 - 29) =      6.98625  eV     1   --> A''            
     e( 30 - 30) =      7.02387  eV     1   --> A'             
     e( 31 - 31) =      7.61504  eV     1   --> A''            
     e( 32 - 32) =      7.76655  eV     1   --> A''            
     e( 33 - 33) =      7.92975  eV     1   --> A'             
     e( 34 - 34) =      8.05368  eV     1   --> A'             
     e( 35 - 35) =      8.11720  eV     1   --> A''            
     e( 36 - 36) =      8.19910  eV     1   --> A''            
     e( 37 - 37) =      9.06171  eV     1   --> A''            
     e( 38 - 38) =      9.09494  eV     1   --> A'             
     e( 39 - 39) =      9.11403  eV     1   --> A''            
     e( 40 - 40) =      9.39133  eV     1   --> A'             
     e( 41 - 41) =      9.43385  eV     1   --> A'             
     e( 42 - 42) =     10.27031  eV     1   --> A''            
     e( 43 - 43) =     10.32499  eV     1   --> A'             
     e( 44 - 44) =     10.37523  eV     1   --> A'             
     e( 45 - 45) =     11.83785  eV     1   --> A''            
     e( 46 - 46) =     11.84240  eV     1   --> A''            
     e( 47 - 47) =     11.86228  eV     1   --> A'             
     e( 48 - 48) =     12.39792  eV     1   --> A'             
     e( 49 - 49) =     12.41063  eV     1   --> A'             
     e( 50 - 50) =     12.53275  eV     1   --> A''            
     e( 51 - 51) =     12.53630  eV     1   --> A'             
     e( 52 - 52) =     12.54580  eV     1   --> A''            
     e( 53 - 53) =     12.56607  eV     1   --> A''            
     e( 54 - 54) =     12.56624  eV     1   --> A'             
     e( 55 - 55) =     12.56739  eV     1   --> A''            
     e( 56 - 56) =     12.83184  eV     1   --> A'             
     e( 57 - 57) =     13.56335  eV     1   --> A''            
     e( 58 - 58) =     14.44562  eV     1   --> A'             
     e( 59 - 59) =     14.45023  eV     1   --> A''            
     e( 60 - 60) =     14.45794  eV     1   --> A''            
     e( 61 - 61) =     16.00667  eV     1   --> A'             
     e( 62 - 62) =     16.05310  eV     1   --> A''            
     e( 63 - 63) =     16.09877  eV     1   --> A'             
     e( 64 - 64) =     16.22778  eV     1   --> A''            
     e( 65 - 65) =     16.26677  eV     1   --> A'             
     e( 66 - 66) =     16.28112  eV     1   --> A''            
     e( 67 - 67) =     16.74050  eV     1   --> A'             
     e( 68 - 68) =     16.80736  eV     1   --> A'             
     e( 69 - 69) =     19.78430  eV     1   --> A'             
     e( 70 - 70) =     19.83377  eV     1   --> A''            
     e( 71 - 71) =     19.93389  eV     1   --> A'             
     e( 72 - 72) =     21.29112  eV     1   --> A''            
     e( 73 - 73) =     21.30726  eV     1   --> A'             
     e( 74 - 74) =     21.43077  eV     1   --> A'             
     e( 75 - 75) =     21.43737  eV     1   --> A''            
     e( 76 - 76) =     21.61019  eV     1   --> A''            
     e( 77 - 77) =     21.62771  eV     1   --> A'             
     e( 78 - 78) =     21.94277  eV     1   --> A''            
     e( 79 - 79) =     22.05389  eV     1   --> A'             
     e( 80 - 80) =     22.08461  eV     1   --> A''            
     e( 81 - 81) =     22.33980  eV     1   --> A'             
     e( 82 - 82) =     22.40560  eV     1   --> A''            
     e( 83 - 83) =     22.45570  eV     1   --> A''            
     e( 84 - 84) =     23.61873  eV     1   --> A'             
     e( 85 - 85) =     23.71145  eV     1   --> A'             
     e( 86 - 86) =     23.76277  eV     1   --> A''            
     e( 87 - 87) =     24.12914  eV     1   --> A''            
     e( 88 - 88) =     24.68530  eV     1   --> A''            
     e( 89 - 89) =     24.75990  eV     1   --> A'             
     e( 90 - 90) =     24.80655  eV     1   --> A''            

 **************************************************************************

 **************************************************************************

                    xk=(   0.02500,   0.02500,   0.00000  )

     Band symmetry, C_s (m)     point group:

     e(  1 -  1) =    -73.36159  eV     1   --> A'             
     e(  2 -  4) =    -73.36125  eV     3   --> A'             
     e(  2 -  4) =    -73.36125  eV     3   -->   2 A''            
     e(  5 -  7) =    -39.54393  eV     3   -->   2 A'             
     e(  5 -  7) =    -39.54393  eV     3   --> A''            
     e(  8 -  9) =    -39.54215  eV     2   -->   2 A''            
     e( 10 - 12) =    -39.54140  eV     3   -->   2 A'             
     e( 10 - 12) =    -39.54140  eV     3   --> A''            
     e( 13 - 13) =    -39.29469  eV     1   --> A''            
     e( 14 - 16) =    -39.29405  eV     3   -->   2 A'             
     e( 14 - 16) =    -39.29405  eV     3   --> A''            
     e( 17 - 17) =     -4.11091  eV     1   --> A'             
     e( 18 - 19) =     -1.99117  eV     2   --> A'             
     e( 18 - 19) =     -1.99117  eV     2   --> A''            
     e( 20 - 20) =     -1.98527  eV     1   --> A''            
     e( 21 - 21) =      0.55444  eV     1   --> A'             
     e( 22 - 22) =      0.55714  eV     1   --> A''            
     e( 23 - 23) =      0.55846  eV     1   --> A'             
     e( 24 - 24) =      2.01080  eV     1   --> A''            
     e( 25 - 25) =      6.22297  eV     1   --> A''            
     e( 26 - 26) =      6.22430  eV     1   --> A'             
     e( 27 - 27) =      6.23267  eV     1   --> A''            
     e( 28 - 28) =      6.96197  eV     1   --> A'             
     e( 29 - 29) =      6.97822  eV     1   --> A''            
     e( 30 - 30) =      6.98806  eV     1   --> A'             
     e( 31 - 31) =      7.73916  eV     1   --> A''            
     e( 32 - 32) =      7.79898  eV     1   --> A''            
     e( 33 - 33) =      7.96292  eV     1   --> A'             
     e( 34 - 34) =      8.00626  eV     1   --> A'             
     e( 35 - 35) =      8.01039  eV     1   --> A''            
     e( 36 - 36) =      8.05250  eV     1   --> A''            
     e( 37 - 37) =      9.07573  eV     1   --> A''            
     e( 38 - 38) =      9.08462  eV     1   --> A'             
     e( 39 - 39) =      9.08900  eV     1   --> A''            
     e( 40 - 40) =      9.43108  eV     1   --> A'             
     e( 41 - 41) =      9.44284  eV     1   --> A'             
     e( 42 - 42) =     10.28747  eV     1   --> A''            
     e( 43 - 43) =     10.30240  eV     1   --> A'             
     e( 44 - 44) =     10.31531  eV     1   --> A'             
     e( 45 - 45) =     11.82701  eV     1   --> A''            
     e( 46 - 46) =     11.82814  eV     1   --> A''            
     e( 47 - 47) =     11.83333  eV     1   --> A'             
     e( 48 - 48) =     12.40946  eV     1   --> A'             
     e( 49 - 49) =     12.41265  eV     1   --> A'             
     e( 50 - 50) =     12.54169  eV     1   --> A''            
     e( 51 - 51) =     12.54236  eV     1   --> A'             
     e( 52 - 52) =     12.54467  eV     1   --> A''            
     e( 53 - 55) =     12.56682  eV     3   --> A'             
     e( 53 - 55) =     12.56682  eV     3   -->   2 A''            
     e( 56 - 56) =     12.82958  eV     1   --> A'             
     e( 57 - 57) =     13.51981  eV     1   --> A''            
     e( 58 - 58) =     14.45153  eV     1   --> A'             
     e( 59 - 59) =     14.45263  eV     1   --> A''            
     e( 60 - 60) =     14.45460  eV     1   --> A''            
     e( 61 - 61) =     16.07751  eV     1   --> A'             
     e( 62 - 62) =     16.09006  eV     1   --> A''            
     e( 63 - 63) =     16.10511  eV     1   --> A'             
     e( 64 - 64) =     16.23499  eV     1   --> A''            
     e( 65 - 65) =     16.24885  eV     1   --> A'             
     e( 66 - 66) =     16.25189  eV     1   --> A''            
     e( 67 - 67) =     16.81740  eV     1   --> A'             
     e( 68 - 68) =     16.83484  eV     1   --> A'             
     e( 69 - 69) =     19.80960  eV     1   --> A'             
     e( 70 - 70) =     19.82329  eV     1   --> A''            
     e( 71 - 71) =     19.84940  eV     1   --> A'             
     e( 72 - 72) =     21.20381  eV     1   --> A'             
     e( 73 - 73) =     21.52446  eV     1   --> A''            
     e( 74 - 74) =     21.56013  eV     1   --> A'             
     e( 75 - 75) =     21.59311  eV     1   --> A''            
     e( 76 - 76) =     21.62316  eV     1   --> A'             
     e( 77 - 77) =     21.64207  eV     1   --> A''            
     e( 78 - 78) =     21.97539  eV     1   --> A''            
     e( 79 - 79) =     22.00221  eV     1   --> A'             
     e( 80 - 80) =     22.02875  eV     1   --> A''            
     e( 81 - 81) =     22.36729  eV     1   --> A'             
     e( 82 - 82) =     22.37291  eV     1   --> A''            
     e( 83 - 83) =     22.41074  eV     1   --> A''            
     e( 84 - 84) =     23.65941  eV     1   --> A'             
     e( 85 - 85) =     23.68502  eV     1   --> A'             
     e( 86 - 86) =     23.69727  eV     1   --> A''            
     e( 87 - 87) =     23.94225  eV     1   --> A''            
     e( 88 - 88) =     24.70581  eV     1   --> A''            
     e( 89 - 89) =     24.72672  eV     1   --> A'             
     e( 90 - 90) =     24.73857  eV     1   --> A''            

 **************************************************************************

 **************************************************************************

                    xk=(   0.00000,   0.00000,   0.00000  )

     point group T_h (m-3)  
     there are  8 classes
     the character table:

       E     3C2   4C3   4C3'  i     3s_h  4S6^5 4S6  
A_g    1.00  1.00  1.00  1.00  1.00  1.00  1.00  1.00
E_g    1.00  1.00 -0.50 -0.50  1.00  1.00 -0.50 -0.50
E_g*   1.00  1.00 -0.50 -0.50  1.00  1.00 -0.50 -0.50
T_g    3.00 -1.00  0.00  0.00  3.00 -1.00  0.00  0.00
A_u    1.00  1.00  1.00  1.00 -1.00 -1.00 -1.00 -1.00
E_u    1.00  1.00 -0.50 -0.50 -1.00 -1.00  0.50  0.50
E_u*   1.00  1.00 -0.50 -0.50 -1.00 -1.00  0.50  0.50
T_u    3.00 -1.00  0.00  0.00 -3.00  1.00  0.00  0.00
     imaginary part
A_g    0.00  0.00  0.00  0.00  0.00  0.00  0.00  0.00
E_g    0.00  0.00  0.87 -0.87  0.00  0.00  0.87 -0.87
E_g*   0.00  0.00 -0.87  0.87  0.00  0.00 -0.87  0.87
T_g    0.00  0.00  0.00  0.00  0.00  0.00  0.00  0.00
A_u    0.00  0.00  0.00  0.00  0.00  0.00  0.00  0.00
E_u    0.00  0.00  0.87 -0.87  0.00  0.00 -0.87  0.87
E_u*   0.00  0.00 -0.87  0.87  0.00  0.00  0.87 -0.87
T_u    0.00  0.00  0.00  0.00  0.00  0.00  0.00  0.00

     the symmetry operations in each class and the name of the first element:

     E        1
                                                                 
     3C2      2    3    4
                                                                 
     4C3      9   12   10   11
                                                                 
     4C3'     5    7    8    6
                                                                 
     i       13
                                                                 
     3s_h    14   15   16
                                                                 
     4S6^5   21   24   22   23
                                                                 
     4S6     17   19   20   18
                                                                 

     Band symmetry, T_h (m-3)   point group:

     e(  1 -  1) =    -73.36165  eV     1   --> A_g            
     e(  2 -  4) =    -73.36125  eV     3   --> T_g            
     e(  5 -  7) =    -39.54394  eV     3   --> T_u            
     e(  8 -  9) =    -39.54215  eV     2   --> E_u            
     e(  8 -  9) =    -39.54215  eV     2   --> E_u*           
     e( 10 - 12) =    -39.54152  eV     3   --> T_u            
     e( 13 - 13) =    -39.29469  eV     1   --> A_u            
     e( 14 - 16) =    -39.29411  eV     3   --> T_u            
     e( 17 - 17) =     -4.11563  eV     1   --> A_g            
     e( 18 - 20) =     -1.98654  eV     3   --> T_g            
     e( 21 - 23) =      0.55410  eV     3   --> T_u            
     e( 24 - 24) =      2.01928  eV     1   --> A_u            
     e( 25 - 27) =      6.23554  eV     3   --> T_g            
     e( 28 - 30) =      6.97546  eV     3   --> T_u            
     e( 31 - 32) =      7.83008  eV     2   --> E_u            
     e( 31 - 32) =      7.83008  eV     2   --> E_u*           
     e( 33 - 35) =      7.95372  eV     3   --> T_g            
     e( 36 - 36) =      8.00907  eV     1   --> A_g            
     e( 37 - 39) =      9.08069  eV     3   --> T_g            
     e( 40 - 41) =      9.44674  eV     2   --> E_g            
     e( 40 - 41) =      9.44674  eV     2   --> E_g*           
     e( 42 - 44) =     10.29357  eV     3   --> T_u            
     e( 45 - 47) =     11.82333  eV     3   --> T_g            
     e( 48 - 49) =     12.41332  eV     2   --> E_g            
     e( 48 - 49) =     12.41332  eV     2   --> E_g*           
     e( 50 - 52) =     12.54419  eV     3   --> T_g            
     e( 53 - 55) =     12.56734  eV     3   --> T_g            
     e( 56 - 56) =     12.82885  eV     1   --> A_g            
     e( 57 - 57) =     13.50468  eV     1   --> A_u            
     e( 58 - 60) =     14.45356  eV     3   --> T_g            
     e( 61 - 63) =     16.10699  eV     3   --> T_u            
     e( 64 - 66) =     16.23734  eV     3   --> T_g            
     e( 67 - 68) =     16.84438  eV     2   --> E_g            
     e( 67 - 68) =     16.84438  eV     2   --> E_g*           
     e( 69 - 71) =     19.81941  eV     3   --> T_u            
     e( 72 - 72) =     21.16708  eV     1   --> A_g            
     e( 73 - 75) =     21.62172  eV     3   --> T_u            
     e( 76 - 77) =     21.67535  eV     2   --> E_u            
     e( 76 - 77) =     21.67535  eV     2   --> E_u*           
     e( 78 - 80) =     21.95833  eV     3   --> T_g            
     e( 81 - 83) =     22.38720  eV     3   --> T_g            
     e( 84 - 86) =     23.67452  eV     3   --> T_u            
     e( 87 - 87) =     23.87219  eV     1   --> A_u            
     e( 88 - 90) =     24.71372  eV     3   --> T_g            

 **************************************************************************

     BANDS        :     53.19s CPU   1m 5.96s WALL


   This run was terminated on:  16:46: 2  21Sep2023            

=------------------------------------------------------------------------------=
   JOB DONE.
=------------------------------------------------------------------------------=
