
     Program PWSCF v.7.1 starts on 20Sep2023 at 17:23:49 

     This program is part of the open-source Quantum ESPRESSO suite
     for quantum simulation of materials; please cite
         "P. Giannozzi et al., J. Phys.:Condens. Matter 21 395502 (2009);
         "P. Giannozzi et al., J. Phys.:Condens. Matter 29 465901 (2017);
         "P. Giannozzi et al., J. Chem. Phys. 152 154105 (2020);
          URL http://www.quantum-espresso.org", 
     in publications or presentations arising from this work. More details at
     http://www.quantum-espresso.org/quote

     Parallel version (MPI & OpenMP), running on      10 processor cores
     Number of MPI processes:                10
     Threads/MPI process:                     1

     MPI processes distributed on     1 nodes
     12800 MiB available memory on the printing compute node when the environment starts

     Waiting for input...
     Reading input from standard input

     Current dimensions of program PWSCF are:
     Max number of different atomic species (ntypx) = 10
     Max number of k-points (npk) =  40000
     Max angular momentum in pseudopotentials (lmaxx) =  4

     Atomic positions and unit cell read from directory:
     ./work/pwscf.save/

     file S.pbe-n-kjpaw_psl.0.1.UPF: wavefunction(s)  3P renormalized
     file Fe.pbe-spn-kjpaw_psl.0.2.1.UPF: wavefunction(s)  3D renormalized
     Message from routine setup:
     using ibrav=0 with symmetry is DISCOURAGED, use correct ibrav instead

     R & G space division:  proc/nbgrp/npool/nimage =      10
     Subspace diagonalization in iterative solution of the eigenvalue problem:
     a serial algorithm will be used


     Parallelization info
     --------------------
     sticks:   dense  smooth     PW     G-vecs:    dense   smooth      PW
     Min         648     210     59                39186     7322    1105
     Max         649     212     60                39189     7323    1110
     Sum        6485    2109    593               391871    73223   11067

     Using Slab Decomposition



     bravais-lattice index     =            0
     lattice parameter (alat)  =      10.1985  a.u.
     unit-cell volume          =    1060.7436 (a.u.)^3
     number of atoms/cell      =           12
     number of atomic types    =            2
     number of electrons       =       112.00
     number of Kohn-Sham states=          114
     kinetic-energy cutoff     =      64.0000  Ry
     charge density cutoff     =     782.0000  Ry
     Exchange-correlation= SLA  PW   PBX  PBC
                           (   1   4   3   4   0   0   0)

     celldm(1)=  10.198512  celldm(2)=   0.000000  celldm(3)=   0.000000
     celldm(4)=   0.000000  celldm(5)=   0.000000  celldm(6)=   0.000000

     crystal axes: (cart. coord. in units of alat)
               a(1) = (   1.000000   0.000000   0.000000 )  
               a(2) = (   0.000000   1.000000   0.000000 )  
               a(3) = (   0.000000   0.000000   1.000000 )  

     reciprocal axes: (cart. coord. in units 2 pi/alat)
               b(1) = (  1.000000  0.000000  0.000000 )  
               b(2) = (  0.000000  1.000000  0.000000 )  
               b(3) = (  0.000000  0.000000  1.000000 )  


     PseudoPot. # 1 for S  read from file:
     ./../../pseudo/psl031_PBE/S.pbe-n-kjpaw_psl.0.1.UPF
     MD5 check sum: f5498c628d6abfb9e86f5ff98a19f17e
     Pseudo is Projector augmented-wave + core cor, Zval =  6.0
     Generated using 'atomic' code by A. Dal Corso  v.7.2
     Shape of augmentation charge: PSQ
     Using radial grid of 1151 points,  4 beta functions with: 
                l(1) =   0
                l(2) =   0
                l(3) =   1
                l(4) =   1
     Q(r) pseudized with 0 coefficients 


     PseudoPot. # 2 for Fe read from file:
     ./../../pseudo/psl031_PBE/Fe.pbe-spn-kjpaw_psl.0.2.1.UPF
     MD5 check sum: 7e4be4449e4de31c8b6269baf83c12b4
     Pseudo is Projector augmented-wave + core cor, Zval = 16.0
     Generated using 'atomic' code by A. Dal Corso  v.7.2
     Shape of augmentation charge: PSQ
     Using radial grid of 1191 points,  6 beta functions with: 
                l(1) =   0
                l(2) =   0
                l(3) =   1
                l(4) =   1
                l(5) =   2
                l(6) =   2
     Q(r) pseudized with 0 coefficients 


     atomic species   valence    mass     pseudopotential
        S              6.00    32.06750     S ( 1.00)
        Fe            16.00    55.84500     Fe( 1.00)

     24 Sym. Ops., with inversion, found (18 have fractional translation)


                                    s                        frac. trans.

      isym =  1     identity                                     

 cryst.   s( 1) = (     1          0          0      )
                  (     0          1          0      )
                  (     0          0          1      )

 cart.    s( 1) = (  1.0000000  0.0000000  0.0000000 )
                  (  0.0000000  1.0000000  0.0000000 )
                  (  0.0000000  0.0000000  1.0000000 )


      isym =  2     180 deg rotation - cart. axis [0,0,1]        

 cryst.   s( 2) = (    -1          0          0      )    f =( -0.5000000 )
                  (     0         -1          0      )       (  0.0000000 )
                  (     0          0          1      )       ( -0.5000000 )

 cart.    s( 2) = ( -1.0000000  0.0000000  0.0000000 )    f =( -0.5000000 )
                  (  0.0000000 -1.0000000  0.0000000 )       (  0.0000000 )
                  (  0.0000000  0.0000000  1.0000000 )       ( -0.5000000 )


      isym =  3     180 deg rotation - cart. axis [0,1,0]        

 cryst.   s( 3) = (    -1          0          0      )    f =(  0.0000000 )
                  (     0          1          0      )       ( -0.5000000 )
                  (     0          0         -1      )       ( -0.5000000 )

 cart.    s( 3) = ( -1.0000000  0.0000000  0.0000000 )    f =(  0.0000000 )
                  (  0.0000000  1.0000000  0.0000000 )       ( -0.5000000 )
                  (  0.0000000  0.0000000 -1.0000000 )       ( -0.5000000 )


      isym =  4     180 deg rotation - cart. axis [1,0,0]        

 cryst.   s( 4) = (     1          0          0      )    f =(  0.5000000 )
                  (     0         -1          0      )       ( -0.5000000 )
                  (     0          0         -1      )       (  0.0000000 )

 cart.    s( 4) = (  1.0000000  0.0000000  0.0000000 )    f =(  0.5000000 )
                  (  0.0000000 -1.0000000  0.0000000 )       ( -0.5000000 )
                  (  0.0000000  0.0000000 -1.0000000 )       (  0.0000000 )


      isym =  5     120 deg rotation - cart. axis [-1,-1,-1]     

 cryst.   s( 5) = (     0          0          1      )
                  (     1          0          0      )
                  (     0          1          0      )

 cart.    s( 5) = (  0.0000000  1.0000000  0.0000000 )
                  (  0.0000000  0.0000000  1.0000000 )
                  (  1.0000000  0.0000000  0.0000000 )


      isym =  6     120 deg rotation - cart. axis [-1,1,1]       

 cryst.   s( 6) = (     0          0         -1      )    f =(  0.0000000 )
                  (    -1          0          0      )       ( -0.5000000 )
                  (     0          1          0      )       ( -0.5000000 )

 cart.    s( 6) = (  0.0000000 -1.0000000  0.0000000 )    f =(  0.0000000 )
                  (  0.0000000  0.0000000  1.0000000 )       ( -0.5000000 )
                  ( -1.0000000  0.0000000  0.0000000 )       ( -0.5000000 )


      isym =  7     120 deg rotation - cart. axis [1,1,-1]       

 cryst.   s( 7) = (     0          0         -1      )    f =(  0.5000000 )
                  (     1          0          0      )       ( -0.5000000 )
                  (     0         -1          0      )       (  0.0000000 )

 cart.    s( 7) = (  0.0000000  1.0000000  0.0000000 )    f =(  0.5000000 )
                  (  0.0000000  0.0000000 -1.0000000 )       ( -0.5000000 )
                  ( -1.0000000  0.0000000  0.0000000 )       (  0.0000000 )


      isym =  8     120 deg rotation - cart. axis [1,-1,1]       

 cryst.   s( 8) = (     0          0          1      )    f =( -0.5000000 )
                  (    -1          0          0      )       (  0.0000000 )
                  (     0         -1          0      )       ( -0.5000000 )

 cart.    s( 8) = (  0.0000000 -1.0000000  0.0000000 )    f =( -0.5000000 )
                  (  0.0000000  0.0000000 -1.0000000 )       (  0.0000000 )
                  (  1.0000000  0.0000000  0.0000000 )       ( -0.5000000 )


      isym =  9     120 deg rotation - cart. axis [1,1,1]        

 cryst.   s( 9) = (     0          1          0      )
                  (     0          0          1      )
                  (     1          0          0      )

 cart.    s( 9) = (  0.0000000  0.0000000  1.0000000 )
                  (  1.0000000  0.0000000  0.0000000 )
                  (  0.0000000  1.0000000  0.0000000 )


      isym = 10     120 deg rotation - cart. axis [-1,1,-1]      

 cryst.   s(10) = (     0         -1          0      )    f =(  0.5000000 )
                  (     0          0         -1      )       ( -0.5000000 )
                  (     1          0          0      )       (  0.0000000 )

 cart.    s(10) = (  0.0000000  0.0000000  1.0000000 )    f =(  0.5000000 )
                  ( -1.0000000  0.0000000  0.0000000 )       ( -0.5000000 )
                  (  0.0000000 -1.0000000  0.0000000 )       (  0.0000000 )


      isym = 11     120 deg rotation - cart. axis [1,-1,-1]      

 cryst.   s(11) = (     0         -1          0      )    f =( -0.5000000 )
                  (     0          0          1      )       (  0.0000000 )
                  (    -1          0          0      )       ( -0.5000000 )

 cart.    s(11) = (  0.0000000  0.0000000 -1.0000000 )    f =( -0.5000000 )
                  ( -1.0000000  0.0000000  0.0000000 )       (  0.0000000 )
                  (  0.0000000  1.0000000  0.0000000 )       ( -0.5000000 )


      isym = 12     120 deg rotation - cart. axis [-1,-1,1]      

 cryst.   s(12) = (     0          1          0      )    f =(  0.0000000 )
                  (     0          0         -1      )       ( -0.5000000 )
                  (    -1          0          0      )       ( -0.5000000 )

 cart.    s(12) = (  0.0000000  0.0000000 -1.0000000 )    f =(  0.0000000 )
                  (  1.0000000  0.0000000  0.0000000 )       ( -0.5000000 )
                  (  0.0000000 -1.0000000  0.0000000 )       ( -0.5000000 )


      isym = 13     inversion                                    

 cryst.   s(13) = (    -1          0          0      )
                  (     0         -1          0      )
                  (     0          0         -1      )

 cart.    s(13) = ( -1.0000000  0.0000000  0.0000000 )
                  (  0.0000000 -1.0000000  0.0000000 )
                  (  0.0000000  0.0000000 -1.0000000 )


      isym = 14     inv. 180 deg rotation - cart. axis [0,0,1]   

 cryst.   s(14) = (     1          0          0      )    f =(  0.5000000 )
                  (     0          1          0      )       (  0.0000000 )
                  (     0          0         -1      )       ( -0.5000000 )

 cart.    s(14) = (  1.0000000  0.0000000  0.0000000 )    f =(  0.5000000 )
                  (  0.0000000  1.0000000  0.0000000 )       (  0.0000000 )
                  (  0.0000000  0.0000000 -1.0000000 )       ( -0.5000000 )


      isym = 15     inv. 180 deg rotation - cart. axis [0,1,0]   

 cryst.   s(15) = (     1          0          0      )    f =(  0.0000000 )
                  (     0         -1          0      )       ( -0.5000000 )
                  (     0          0          1      )       ( -0.5000000 )

 cart.    s(15) = (  1.0000000  0.0000000  0.0000000 )    f =(  0.0000000 )
                  (  0.0000000 -1.0000000  0.0000000 )       ( -0.5000000 )
                  (  0.0000000  0.0000000  1.0000000 )       ( -0.5000000 )


      isym = 16     inv. 180 deg rotation - cart. axis [1,0,0]   

 cryst.   s(16) = (    -1          0          0      )    f =( -0.5000000 )
                  (     0          1          0      )       ( -0.5000000 )
                  (     0          0          1      )       (  0.0000000 )

 cart.    s(16) = ( -1.0000000  0.0000000  0.0000000 )    f =( -0.5000000 )
                  (  0.0000000  1.0000000  0.0000000 )       ( -0.5000000 )
                  (  0.0000000  0.0000000  1.0000000 )       (  0.0000000 )


      isym = 17     inv. 120 deg rotation - cart. axis [-1,-1,-1]

 cryst.   s(17) = (     0          0         -1      )
                  (    -1          0          0      )
                  (     0         -1          0      )

 cart.    s(17) = (  0.0000000 -1.0000000  0.0000000 )
                  (  0.0000000  0.0000000 -1.0000000 )
                  ( -1.0000000  0.0000000  0.0000000 )


      isym = 18     inv. 120 deg rotation - cart. axis [-1,1,1]  

 cryst.   s(18) = (     0          0          1      )    f =(  0.0000000 )
                  (     1          0          0      )       ( -0.5000000 )
                  (     0         -1          0      )       ( -0.5000000 )

 cart.    s(18) = (  0.0000000  1.0000000  0.0000000 )    f =(  0.0000000 )
                  (  0.0000000  0.0000000 -1.0000000 )       ( -0.5000000 )
                  (  1.0000000  0.0000000  0.0000000 )       ( -0.5000000 )


      isym = 19     inv. 120 deg rotation - cart. axis [1,1,-1]  

 cryst.   s(19) = (     0          0          1      )    f =( -0.5000000 )
                  (    -1          0          0      )       ( -0.5000000 )
                  (     0          1          0      )       (  0.0000000 )

 cart.    s(19) = (  0.0000000 -1.0000000  0.0000000 )    f =( -0.5000000 )
                  (  0.0000000  0.0000000  1.0000000 )       ( -0.5000000 )
                  (  1.0000000  0.0000000  0.0000000 )       (  0.0000000 )


      isym = 20     inv. 120 deg rotation - cart. axis [1,-1,1]  

 cryst.   s(20) = (     0          0         -1      )    f =(  0.5000000 )
                  (     1          0          0      )       (  0.0000000 )
                  (     0          1          0      )       ( -0.5000000 )

 cart.    s(20) = (  0.0000000  1.0000000  0.0000000 )    f =(  0.5000000 )
                  (  0.0000000  0.0000000  1.0000000 )       (  0.0000000 )
                  ( -1.0000000  0.0000000  0.0000000 )       ( -0.5000000 )


      isym = 21     inv. 120 deg rotation - cart. axis [1,1,1]   

 cryst.   s(21) = (     0         -1          0      )
                  (     0          0         -1      )
                  (    -1          0          0      )

 cart.    s(21) = (  0.0000000  0.0000000 -1.0000000 )
                  ( -1.0000000  0.0000000  0.0000000 )
                  (  0.0000000 -1.0000000  0.0000000 )


      isym = 22     inv. 120 deg rotation - cart. axis [-1,1,-1] 

 cryst.   s(22) = (     0          1          0      )    f =( -0.5000000 )
                  (     0          0          1      )       ( -0.5000000 )
                  (    -1          0          0      )       (  0.0000000 )

 cart.    s(22) = (  0.0000000  0.0000000 -1.0000000 )    f =( -0.5000000 )
                  (  1.0000000  0.0000000  0.0000000 )       ( -0.5000000 )
                  (  0.0000000  1.0000000  0.0000000 )       (  0.0000000 )


      isym = 23     inv. 120 deg rotation - cart. axis [1,-1,-1] 

 cryst.   s(23) = (     0          1          0      )    f =(  0.5000000 )
                  (     0          0         -1      )       (  0.0000000 )
                  (     1          0          0      )       ( -0.5000000 )

 cart.    s(23) = (  0.0000000  0.0000000  1.0000000 )    f =(  0.5000000 )
                  (  1.0000000  0.0000000  0.0000000 )       (  0.0000000 )
                  (  0.0000000 -1.0000000  0.0000000 )       ( -0.5000000 )


      isym = 24     inv. 120 deg rotation - cart. axis [-1,-1,1] 

 cryst.   s(24) = (     0         -1          0      )    f =(  0.0000000 )
                  (     0          0          1      )       ( -0.5000000 )
                  (     1          0          0      )       ( -0.5000000 )

 cart.    s(24) = (  0.0000000  0.0000000  1.0000000 )    f =(  0.0000000 )
                  ( -1.0000000  0.0000000  0.0000000 )       ( -0.5000000 )
                  (  0.0000000  1.0000000  0.0000000 )       ( -0.5000000 )


   Cartesian axes

     site n.     atom                  positions (alat units)
         1           Fe  tau(   1) = (   0.0000000   0.5000000   0.5000000  )
         2           Fe  tau(   2) = (   0.5000000   0.5000000   0.0000000  )
         3           Fe  tau(   3) = (   0.5000000   0.0000000   0.5000000  )
         4           Fe  tau(   4) = (   0.0000000   0.0000000   0.0000000  )
         5           S   tau(   5) = (   0.3853801   0.1146199   0.8853801  )
         6           S   tau(   6) = (   0.1146199   0.8853801   0.3853801  )
         7           S   tau(   7) = (   0.8853801   0.3853801   0.1146199  )
         8           S   tau(   8) = (   0.6146199   0.6146199   0.6146199  )
         9           S   tau(   9) = (   0.3853801   0.3853801   0.3853801  )
        10           S   tau(  10) = (   0.1146199   0.6146199   0.8853801  )
        11           S   tau(  11) = (   0.8853801   0.1146199   0.6146199  )
        12           S   tau(  12) = (   0.6146199   0.8853801   0.1146199  )

   Crystallographic axes

     site n.     atom                  positions (cryst. coord.)
         1           Fe  tau(   1) = (  0.0000000  0.5000000  0.5000000  )
         2           Fe  tau(   2) = (  0.5000000  0.5000000  0.0000000  )
         3           Fe  tau(   3) = (  0.5000000  0.0000000  0.5000000  )
         4           Fe  tau(   4) = (  0.0000000  0.0000000  0.0000000  )
         5           S   tau(   5) = (  0.3853801  0.1146199  0.8853801  )
         6           S   tau(   6) = (  0.1146199  0.8853801  0.3853801  )
         7           S   tau(   7) = (  0.8853801  0.3853801  0.1146199  )
         8           S   tau(   8) = (  0.6146199  0.6146199  0.6146199  )
         9           S   tau(   9) = (  0.3853801  0.3853801  0.3853801  )
        10           S   tau(  10) = (  0.1146199  0.6146199  0.8853801  )
        11           S   tau(  11) = (  0.8853801  0.1146199  0.6146199  )
        12           S   tau(  12) = (  0.6146199  0.8853801  0.1146199  )

     number of k points=    81  Methfessel-Paxton smearing, width (Ry)=  0.0100
                       cart. coord. in units 2pi/alat
        k(    1) = (   0.5000000   0.5000000   0.5000000), wk =   0.0246914
        k(    2) = (   0.4750000   0.4750000   0.4750000), wk =   0.0246914
        k(    3) = (   0.4500000   0.4500000   0.4500000), wk =   0.0246914
        k(    4) = (   0.4250000   0.4250000   0.4250000), wk =   0.0246914
        k(    5) = (   0.4000000   0.4000000   0.4000000), wk =   0.0246914
        k(    6) = (   0.3750000   0.3750000   0.3750000), wk =   0.0246914
        k(    7) = (   0.3500000   0.3500000   0.3500000), wk =   0.0246914
        k(    8) = (   0.3250000   0.3250000   0.3250000), wk =   0.0246914
        k(    9) = (   0.3000000   0.3000000   0.3000000), wk =   0.0246914
        k(   10) = (   0.2750000   0.2750000   0.2750000), wk =   0.0246914
        k(   11) = (   0.2500000   0.2500000   0.2500000), wk =   0.0246914
        k(   12) = (   0.2250000   0.2250000   0.2250000), wk =   0.0246914
        k(   13) = (   0.2000000   0.2000000   0.2000000), wk =   0.0246914
        k(   14) = (   0.1750000   0.1750000   0.1750000), wk =   0.0246914
        k(   15) = (   0.1500000   0.1500000   0.1500000), wk =   0.0246914
        k(   16) = (   0.1250000   0.1250000   0.1250000), wk =   0.0246914
        k(   17) = (   0.1000000   0.1000000   0.1000000), wk =   0.0246914
        k(   18) = (   0.0750000   0.0750000   0.0750000), wk =   0.0246914
        k(   19) = (   0.0500000   0.0500000   0.0500000), wk =   0.0246914
        k(   20) = (   0.0250000   0.0250000   0.0250000), wk =   0.0246914
        k(   21) = (   0.0000000   0.0000000   0.0000000), wk =   0.0246914
        k(   22) = (   0.0250000   0.0000000   0.0000000), wk =   0.0246914
        k(   23) = (   0.0500000   0.0000000   0.0000000), wk =   0.0246914
        k(   24) = (   0.0750000   0.0000000   0.0000000), wk =   0.0246914
        k(   25) = (   0.1000000   0.0000000   0.0000000), wk =   0.0246914
        k(   26) = (   0.1250000   0.0000000   0.0000000), wk =   0.0246914
        k(   27) = (   0.1500000   0.0000000   0.0000000), wk =   0.0246914
        k(   28) = (   0.1750000   0.0000000   0.0000000), wk =   0.0246914
        k(   29) = (   0.2000000   0.0000000   0.0000000), wk =   0.0246914
        k(   30) = (   0.2250000   0.0000000   0.0000000), wk =   0.0246914
        k(   31) = (   0.2500000   0.0000000   0.0000000), wk =   0.0246914
        k(   32) = (   0.2750000   0.0000000   0.0000000), wk =   0.0246914
        k(   33) = (   0.3000000   0.0000000   0.0000000), wk =   0.0246914
        k(   34) = (   0.3250000   0.0000000   0.0000000), wk =   0.0246914
        k(   35) = (   0.3500000   0.0000000   0.0000000), wk =   0.0246914
        k(   36) = (   0.3750000   0.0000000   0.0000000), wk =   0.0246914
        k(   37) = (   0.4000000   0.0000000   0.0000000), wk =   0.0246914
        k(   38) = (   0.4250000   0.0000000   0.0000000), wk =   0.0246914
        k(   39) = (   0.4500000   0.0000000   0.0000000), wk =   0.0246914
        k(   40) = (   0.4750000   0.0000000   0.0000000), wk =   0.0246914
        k(   41) = (   0.5000000   0.0000000   0.0000000), wk =   0.0246914
        k(   42) = (   0.5000000   0.0250000   0.0000000), wk =   0.0246914
        k(   43) = (   0.5000000   0.0500000   0.0000000), wk =   0.0246914
        k(   44) = (   0.5000000   0.0750000   0.0000000), wk =   0.0246914
        k(   45) = (   0.5000000   0.1000000   0.0000000), wk =   0.0246914
        k(   46) = (   0.5000000   0.1250000   0.0000000), wk =   0.0246914
        k(   47) = (   0.5000000   0.1500000   0.0000000), wk =   0.0246914
        k(   48) = (   0.5000000   0.1750000   0.0000000), wk =   0.0246914
        k(   49) = (   0.5000000   0.2000000   0.0000000), wk =   0.0246914
        k(   50) = (   0.5000000   0.2250000   0.0000000), wk =   0.0246914
        k(   51) = (   0.5000000   0.2500000   0.0000000), wk =   0.0246914
        k(   52) = (   0.5000000   0.2750000   0.0000000), wk =   0.0246914
        k(   53) = (   0.5000000   0.3000000   0.0000000), wk =   0.0246914
        k(   54) = (   0.5000000   0.3250000   0.0000000), wk =   0.0246914
        k(   55) = (   0.5000000   0.3500000   0.0000000), wk =   0.0246914
        k(   56) = (   0.5000000   0.3750000   0.0000000), wk =   0.0246914
        k(   57) = (   0.5000000   0.4000000   0.0000000), wk =   0.0246914
        k(   58) = (   0.5000000   0.4250000   0.0000000), wk =   0.0246914
        k(   59) = (   0.5000000   0.4500000   0.0000000), wk =   0.0246914
        k(   60) = (   0.5000000   0.4750000   0.0000000), wk =   0.0246914
        k(   61) = (   0.5000000   0.5000000   0.0000000), wk =   0.0246914
        k(   62) = (   0.4750000   0.4750000   0.0000000), wk =   0.0246914
        k(   63) = (   0.4500000   0.4500000   0.0000000), wk =   0.0246914
        k(   64) = (   0.4250000   0.4250000   0.0000000), wk =   0.0246914
        k(   65) = (   0.4000000   0.4000000   0.0000000), wk =   0.0246914
        k(   66) = (   0.3750000   0.3750000   0.0000000), wk =   0.0246914
        k(   67) = (   0.3500000   0.3500000   0.0000000), wk =   0.0246914
        k(   68) = (   0.3250000   0.3250000   0.0000000), wk =   0.0246914
        k(   69) = (   0.3000000   0.3000000   0.0000000), wk =   0.0246914
        k(   70) = (   0.2750000   0.2750000   0.0000000), wk =   0.0246914
        k(   71) = (   0.2500000   0.2500000   0.0000000), wk =   0.0246914
        k(   72) = (   0.2250000   0.2250000   0.0000000), wk =   0.0246914
        k(   73) = (   0.2000000   0.2000000   0.0000000), wk =   0.0246914
        k(   74) = (   0.1750000   0.1750000   0.0000000), wk =   0.0246914
        k(   75) = (   0.1500000   0.1500000   0.0000000), wk =   0.0246914
        k(   76) = (   0.1250000   0.1250000   0.0000000), wk =   0.0246914
        k(   77) = (   0.1000000   0.1000000   0.0000000), wk =   0.0246914
        k(   78) = (   0.0750000   0.0750000   0.0000000), wk =   0.0246914
        k(   79) = (   0.0500000   0.0500000   0.0000000), wk =   0.0246914
        k(   80) = (   0.0250000   0.0250000   0.0000000), wk =   0.0246914
        k(   81) = (   0.0000000   0.0000000   0.0000000), wk =   0.0246914

                       cryst. coord.
        k(    1) = (   0.5000000   0.5000000   0.5000000), wk =   0.0246914
        k(    2) = (   0.4750000   0.4750000   0.4750000), wk =   0.0246914
        k(    3) = (   0.4500000   0.4500000   0.4500000), wk =   0.0246914
        k(    4) = (   0.4250000   0.4250000   0.4250000), wk =   0.0246914
        k(    5) = (   0.4000000   0.4000000   0.4000000), wk =   0.0246914
        k(    6) = (   0.3750000   0.3750000   0.3750000), wk =   0.0246914
        k(    7) = (   0.3500000   0.3500000   0.3500000), wk =   0.0246914
        k(    8) = (   0.3250000   0.3250000   0.3250000), wk =   0.0246914
        k(    9) = (   0.3000000   0.3000000   0.3000000), wk =   0.0246914
        k(   10) = (   0.2750000   0.2750000   0.2750000), wk =   0.0246914
        k(   11) = (   0.2500000   0.2500000   0.2500000), wk =   0.0246914
        k(   12) = (   0.2250000   0.2250000   0.2250000), wk =   0.0246914
        k(   13) = (   0.2000000   0.2000000   0.2000000), wk =   0.0246914
        k(   14) = (   0.1750000   0.1750000   0.1750000), wk =   0.0246914
        k(   15) = (   0.1500000   0.1500000   0.1500000), wk =   0.0246914
        k(   16) = (   0.1250000   0.1250000   0.1250000), wk =   0.0246914
        k(   17) = (   0.1000000   0.1000000   0.1000000), wk =   0.0246914
        k(   18) = (   0.0750000   0.0750000   0.0750000), wk =   0.0246914
        k(   19) = (   0.0500000   0.0500000   0.0500000), wk =   0.0246914
        k(   20) = (   0.0250000   0.0250000   0.0250000), wk =   0.0246914
        k(   21) = (   0.0000000   0.0000000   0.0000000), wk =   0.0246914
        k(   22) = (   0.0250000   0.0000000   0.0000000), wk =   0.0246914
        k(   23) = (   0.0500000   0.0000000   0.0000000), wk =   0.0246914
        k(   24) = (   0.0750000   0.0000000   0.0000000), wk =   0.0246914
        k(   25) = (   0.1000000   0.0000000   0.0000000), wk =   0.0246914
        k(   26) = (   0.1250000   0.0000000   0.0000000), wk =   0.0246914
        k(   27) = (   0.1500000   0.0000000   0.0000000), wk =   0.0246914
        k(   28) = (   0.1750000   0.0000000   0.0000000), wk =   0.0246914
        k(   29) = (   0.2000000   0.0000000   0.0000000), wk =   0.0246914
        k(   30) = (   0.2250000   0.0000000   0.0000000), wk =   0.0246914
        k(   31) = (   0.2500000   0.0000000   0.0000000), wk =   0.0246914
        k(   32) = (   0.2750000   0.0000000   0.0000000), wk =   0.0246914
        k(   33) = (   0.3000000   0.0000000   0.0000000), wk =   0.0246914
        k(   34) = (   0.3250000   0.0000000   0.0000000), wk =   0.0246914
        k(   35) = (   0.3500000   0.0000000   0.0000000), wk =   0.0246914
        k(   36) = (   0.3750000   0.0000000   0.0000000), wk =   0.0246914
        k(   37) = (   0.4000000   0.0000000   0.0000000), wk =   0.0246914
        k(   38) = (   0.4250000   0.0000000   0.0000000), wk =   0.0246914
        k(   39) = (   0.4500000   0.0000000   0.0000000), wk =   0.0246914
        k(   40) = (   0.4750000   0.0000000   0.0000000), wk =   0.0246914
        k(   41) = (   0.5000000   0.0000000   0.0000000), wk =   0.0246914
        k(   42) = (   0.5000000   0.0250000   0.0000000), wk =   0.0246914
        k(   43) = (   0.5000000   0.0500000   0.0000000), wk =   0.0246914
        k(   44) = (   0.5000000   0.0750000   0.0000000), wk =   0.0246914
        k(   45) = (   0.5000000   0.1000000   0.0000000), wk =   0.0246914
        k(   46) = (   0.5000000   0.1250000   0.0000000), wk =   0.0246914
        k(   47) = (   0.5000000   0.1500000   0.0000000), wk =   0.0246914
        k(   48) = (   0.5000000   0.1750000   0.0000000), wk =   0.0246914
        k(   49) = (   0.5000000   0.2000000   0.0000000), wk =   0.0246914
        k(   50) = (   0.5000000   0.2250000   0.0000000), wk =   0.0246914
        k(   51) = (   0.5000000   0.2500000   0.0000000), wk =   0.0246914
        k(   52) = (   0.5000000   0.2750000   0.0000000), wk =   0.0246914
        k(   53) = (   0.5000000   0.3000000   0.0000000), wk =   0.0246914
        k(   54) = (   0.5000000   0.3250000   0.0000000), wk =   0.0246914
        k(   55) = (   0.5000000   0.3500000   0.0000000), wk =   0.0246914
        k(   56) = (   0.5000000   0.3750000   0.0000000), wk =   0.0246914
        k(   57) = (   0.5000000   0.4000000   0.0000000), wk =   0.0246914
        k(   58) = (   0.5000000   0.4250000   0.0000000), wk =   0.0246914
        k(   59) = (   0.5000000   0.4500000   0.0000000), wk =   0.0246914
        k(   60) = (   0.5000000   0.4750000   0.0000000), wk =   0.0246914
        k(   61) = (   0.5000000   0.5000000   0.0000000), wk =   0.0246914
        k(   62) = (   0.4750000   0.4750000   0.0000000), wk =   0.0246914
        k(   63) = (   0.4500000   0.4500000   0.0000000), wk =   0.0246914
        k(   64) = (   0.4250000   0.4250000   0.0000000), wk =   0.0246914
        k(   65) = (   0.4000000   0.4000000   0.0000000), wk =   0.0246914
        k(   66) = (   0.3750000   0.3750000   0.0000000), wk =   0.0246914
        k(   67) = (   0.3500000   0.3500000   0.0000000), wk =   0.0246914
        k(   68) = (   0.3250000   0.3250000   0.0000000), wk =   0.0246914
        k(   69) = (   0.3000000   0.3000000   0.0000000), wk =   0.0246914
        k(   70) = (   0.2750000   0.2750000   0.0000000), wk =   0.0246914
        k(   71) = (   0.2500000   0.2500000   0.0000000), wk =   0.0246914
        k(   72) = (   0.2250000   0.2250000   0.0000000), wk =   0.0246914
        k(   73) = (   0.2000000   0.2000000   0.0000000), wk =   0.0246914
        k(   74) = (   0.1750000   0.1750000   0.0000000), wk =   0.0246914
        k(   75) = (   0.1500000   0.1500000   0.0000000), wk =   0.0246914
        k(   76) = (   0.1250000   0.1250000   0.0000000), wk =   0.0246914
        k(   77) = (   0.1000000   0.1000000   0.0000000), wk =   0.0246914
        k(   78) = (   0.0750000   0.0750000   0.0000000), wk =   0.0246914
        k(   79) = (   0.0500000   0.0500000   0.0000000), wk =   0.0246914
        k(   80) = (   0.0250000   0.0250000   0.0000000), wk =   0.0246914
        k(   81) = (   0.0000000   0.0000000   0.0000000), wk =   0.0246914

     Dense  grid:   391871 G-vectors     FFT dimensions: (  96,  96,  96)

     Smooth grid:    73223 G-vectors     FFT dimensions: (  54,  54,  54)

     Dynamical RAM for                 wfc:       1.60 MB

     Dynamical RAM for     wfc (w. buffer):     130.80 MB

     Dynamical RAM for           str. fact:       1.20 MB

     Dynamical RAM for           local pot:       0.00 MB

     Dynamical RAM for          nlocal pot:       1.90 MB

     Dynamical RAM for                qrad:       4.49 MB

     Dynamical RAM for          rho,v,vnew:       3.90 MB

     Dynamical RAM for           G-vectors:       2.30 MB

     Dynamical RAM for          h,s,v(r/c):       2.38 MB

     Dynamical RAM for          <psi|beta>:       0.24 MB

     Dynamical RAM for                 psi:       3.19 MB

     Dynamical RAM for                hpsi:       3.19 MB

     Dynamical RAM for                spsi:       3.19 MB

     Dynamical RAM for      wfcinit/wfcrot:       3.49 MB

     Dynamical RAM for           addusdens:     116.01 MB

     Estimated static dynamical RAM per process >     149.90 MB

     Estimated max dynamical RAM per process >     265.90 MB

     Estimated total dynamical RAM >       2.60 GB

     Check: negative core charge=   -0.000009

     The potential is recalculated from file :
     ./work/pwscf.save/charge-density

     Starting wfcs are   84 randomized atomic wfcs +   30 random wfcs
     Checking if some PAW data can be deallocated... 
       PAW data deallocated on    2 nodes for type:  1
       PAW data deallocated on    8 nodes for type:  2

     Band Structure Calculation
     Davidson diagonalization with overlap

     Computing kpt #:     1  of    81
     total cpu time spent up to now is        3.4 secs

     Computing kpt #:     2  of    81
     total cpu time spent up to now is        5.4 secs

     Computing kpt #:     3  of    81
     total cpu time spent up to now is        7.3 secs

     Computing kpt #:     4  of    81
     total cpu time spent up to now is        9.3 secs

     Computing kpt #:     5  of    81
     total cpu time spent up to now is       11.4 secs

     Computing kpt #:     6  of    81
     total cpu time spent up to now is       13.4 secs

     Computing kpt #:     7  of    81
     total cpu time spent up to now is       15.5 secs

     Computing kpt #:     8  of    81
     total cpu time spent up to now is       17.5 secs

     Computing kpt #:     9  of    81
     total cpu time spent up to now is       19.6 secs

     Computing kpt #:    10  of    81
     total cpu time spent up to now is       21.6 secs

     Computing kpt #:    11  of    81
     total cpu time spent up to now is       23.8 secs

     Computing kpt #:    12  of    81
     total cpu time spent up to now is       26.0 secs

     Computing kpt #:    13  of    81
     total cpu time spent up to now is       28.1 secs

     Computing kpt #:    14  of    81
     total cpu time spent up to now is       30.3 secs

     Computing kpt #:    15  of    81
     total cpu time spent up to now is       32.5 secs

     Computing kpt #:    16  of    81
     total cpu time spent up to now is       34.8 secs

     Computing kpt #:    17  of    81
     total cpu time spent up to now is       37.1 secs

     Computing kpt #:    18  of    81
     total cpu time spent up to now is       39.4 secs

     Computing kpt #:    19  of    81
     total cpu time spent up to now is       41.7 secs

     Computing kpt #:    20  of    81
     total cpu time spent up to now is       43.9 secs

     Computing kpt #:    21  of    81
     total cpu time spent up to now is       46.0 secs

     Computing kpt #:    22  of    81
     c_bands:  1 eigenvalues not converged
     total cpu time spent up to now is       50.3 secs

     Computing kpt #:    23  of    81
     total cpu time spent up to now is       53.1 secs

     Computing kpt #:    24  of    81
     total cpu time spent up to now is       55.9 secs

     Computing kpt #:    25  of    81
     total cpu time spent up to now is       58.6 secs

     Computing kpt #:    26  of    81
     total cpu time spent up to now is       61.2 secs

     Computing kpt #:    27  of    81
     total cpu time spent up to now is       63.8 secs

     Computing kpt #:    28  of    81
     total cpu time spent up to now is       66.3 secs

     Computing kpt #:    29  of    81
     total cpu time spent up to now is       68.7 secs

     Computing kpt #:    30  of    81
     total cpu time spent up to now is       71.2 secs

     Computing kpt #:    31  of    81
     total cpu time spent up to now is       73.7 secs

     Computing kpt #:    32  of    81
     total cpu time spent up to now is       76.7 secs

     Computing kpt #:    33  of    81
     total cpu time spent up to now is       79.3 secs

     Computing kpt #:    34  of    81
     total cpu time spent up to now is       81.8 secs

     Computing kpt #:    35  of    81
     total cpu time spent up to now is       84.3 secs

     Computing kpt #:    36  of    81
     total cpu time spent up to now is       86.7 secs

     Computing kpt #:    37  of    81
     total cpu time spent up to now is       89.2 secs

     Computing kpt #:    38  of    81
     total cpu time spent up to now is       91.7 secs

     Computing kpt #:    39  of    81
     total cpu time spent up to now is       94.5 secs

     Computing kpt #:    40  of    81
     total cpu time spent up to now is       97.3 secs

     Computing kpt #:    41  of    81
     total cpu time spent up to now is       99.8 secs

     Computing kpt #:    42  of    81
     total cpu time spent up to now is      102.2 secs

     Computing kpt #:    43  of    81
     total cpu time spent up to now is      104.7 secs

     Computing kpt #:    44  of    81
     total cpu time spent up to now is      107.2 secs

     Computing kpt #:    45  of    81
     total cpu time spent up to now is      109.6 secs

     Computing kpt #:    46  of    81
     total cpu time spent up to now is      112.1 secs

     Computing kpt #:    47  of    81
     total cpu time spent up to now is      114.6 secs

     Computing kpt #:    48  of    81
     total cpu time spent up to now is      117.1 secs

     Computing kpt #:    49  of    81
     total cpu time spent up to now is      119.4 secs

     Computing kpt #:    50  of    81
     total cpu time spent up to now is      121.9 secs

     Computing kpt #:    51  of    81
     total cpu time spent up to now is      124.3 secs

     Computing kpt #:    52  of    81
     total cpu time spent up to now is      126.7 secs

     Computing kpt #:    53  of    81
     total cpu time spent up to now is      129.0 secs

     Computing kpt #:    54  of    81
     total cpu time spent up to now is      131.5 secs

     Computing kpt #:    55  of    81
     total cpu time spent up to now is      133.9 secs

     Computing kpt #:    56  of    81
     total cpu time spent up to now is      136.2 secs

     Computing kpt #:    57  of    81
     total cpu time spent up to now is      138.6 secs

     Computing kpt #:    58  of    81
     total cpu time spent up to now is      141.1 secs

     Computing kpt #:    59  of    81
     total cpu time spent up to now is      143.6 secs

     Computing kpt #:    60  of    81
     total cpu time spent up to now is      146.2 secs

     Computing kpt #:    61  of    81
     total cpu time spent up to now is      148.8 secs

     Computing kpt #:    62  of    81
     total cpu time spent up to now is      151.5 secs

     Computing kpt #:    63  of    81
     total cpu time spent up to now is      154.1 secs

     Computing kpt #:    64  of    81
     total cpu time spent up to now is      156.6 secs

     Computing kpt #:    65  of    81
     total cpu time spent up to now is      159.2 secs

     Computing kpt #:    66  of    81
     total cpu time spent up to now is      162.2 secs

     Computing kpt #:    67  of    81
     total cpu time spent up to now is      165.0 secs

     Computing kpt #:    68  of    81
     total cpu time spent up to now is      167.7 secs

     Computing kpt #:    69  of    81
     total cpu time spent up to now is      170.4 secs

     Computing kpt #:    70  of    81
     total cpu time spent up to now is      173.1 secs

     Computing kpt #:    71  of    81
     total cpu time spent up to now is      175.8 secs

     Computing kpt #:    72  of    81
     total cpu time spent up to now is      178.5 secs

     Computing kpt #:    73  of    81
     total cpu time spent up to now is      181.3 secs

     Computing kpt #:    74  of    81
     total cpu time spent up to now is      183.9 secs

     Computing kpt #:    75  of    81
     total cpu time spent up to now is      186.5 secs

     Computing kpt #:    76  of    81
     total cpu time spent up to now is      189.1 secs

     Computing kpt #:    77  of    81
     total cpu time spent up to now is      191.6 secs

     Computing kpt #:    78  of    81
     total cpu time spent up to now is      194.4 secs

     Computing kpt #:    79  of    81
     total cpu time spent up to now is      197.2 secs

     Computing kpt #:    80  of    81
     total cpu time spent up to now is      201.3 secs

     Computing kpt #:    81  of    81
     total cpu time spent up to now is      203.6 secs

     ethr =  8.93E-08,  avg # of iterations = 37.0

     total cpu time spent up to now is      203.6 secs

     End of band structure calculation

          k = 0.5000 0.5000 0.5000 (  9104 PWs)   bands (ev):

   -73.4641 -73.4641 -73.4641 -73.4641 -39.6409 -39.6409 -39.6409 -39.6409
   -39.6378 -39.6378 -39.6378 -39.6378 -39.3861 -39.3861 -39.3861 -39.3861
    -2.3937  -2.3937  -2.3937  -2.3937   0.1891   0.1891   0.1891   0.1891
     6.3352   6.3352   6.3352   6.3352   7.4404   7.4404   7.4404   7.4404
     8.2917   8.2917   8.2917   8.2917  10.5324  10.5324  10.5324  10.5324
    10.8485  10.8485  10.8485  10.8485  11.6201  11.6201  11.6201  11.6201
    11.7708  11.7708  11.7708  11.7708  12.4271  12.4271  12.4271  12.4271
    14.2594  14.2594  14.2594  14.2594  15.2327  15.2327  15.2327  15.2327
    16.1560  16.1560  16.1560  16.1560  19.9322  19.9322  19.9322  19.9322
    20.8876  20.8876  20.8876  20.8876  21.3947  21.3947  21.3947  21.3947
    21.8746  21.8746  21.8746  21.8746  23.0419  23.0419  23.0419  23.0419
    25.4311  25.4311  25.4311  25.4311  27.8182  27.8182  27.8182  27.8182
    28.6323  28.6323  28.6323  28.6323  29.7156  29.7156  29.7156  29.7156
    29.8160  29.8160  29.8160  29.8160  32.6853  32.6853  32.6853  32.6853
    33.0395  33.0395

          k = 0.4750 0.4750 0.4750 (  9204 PWs)   bands (ev):

   -73.4642 -73.4642 -73.4642 -73.4642 -39.6411 -39.6411 -39.6411 -39.6411
   -39.6382 -39.6382 -39.6381 -39.6381 -39.3864 -39.3864 -39.3863 -39.3863
    -2.4138  -2.3930  -2.3925  -2.3925   0.1939   0.1939   0.1990   0.2082
     6.2844   6.3288   6.3288   6.3359   7.4141   7.4141   7.4414   7.5050
     8.2899   8.2899   8.3205   8.3205  10.4983  10.4983  10.5219  10.5219
    10.7849  10.8276  10.8276  10.8344  11.6320  11.6406  11.6406  11.6707
    11.7810  11.7810  11.7956  11.7956  12.4257  12.4331  12.4331  12.4338
    14.2581  14.2714  14.2716  14.2716  15.2254  15.2254  15.2377  15.2377
    16.1376  16.1429  16.1552  16.1552  19.8539  19.8890  19.8890  19.9577
    20.8664  20.9121  20.9121  20.9761  21.3510  21.3510  21.3818  21.3818
    21.8845  21.8845  21.9226  21.9226  23.0351  23.0708  23.0721  23.0721
    25.4318  25.4600  25.4885  25.4885  27.5840  27.7414  27.7414  27.8158
    28.6030  28.6526  28.6526  28.8646  29.5399  29.5399  29.5912  29.5912
    29.9359  29.9359  29.9750  29.9750  32.5313  32.6190  32.6190  32.6371
    33.0211  33.1715

          k = 0.4500 0.4500 0.4500 (  9219 PWs)   bands (ev):

   -73.4642 -73.4642 -73.4642 -73.4642 -39.6411 -39.6411 -39.6411 -39.6410
   -39.6382 -39.6382 -39.6382 -39.6382 -39.3864 -39.3864 -39.3864 -39.3864
    -2.4716  -2.3907  -2.3887  -2.3887   0.2081   0.2081   0.2287   0.2625
     6.1604   6.3088   6.3088   6.3383   7.3488   7.3488   7.4438   7.6702
     8.2845   8.2845   8.3921   8.3921  10.4050  10.4050  10.4869  10.4869
    10.6317  10.7847  10.7847  10.7949  11.6650  11.6838  11.6838  11.7848
    11.8119  11.8119  11.8650  11.8650  12.4214  12.4508  12.4508  12.4540
    14.2543  14.3070  14.3076  14.3076  15.2034  15.2034  15.2526  15.2526
    16.0838  16.1047  16.1529  16.1529  19.6874  19.7824  19.7824  20.0336
    20.8063  20.9567  20.9567  21.1684  21.2410  21.2410  21.3677  21.3677
    21.9095  21.9095  22.0423  22.0423  23.0160  23.1586  23.1620  23.1620
    25.4339  25.5408  25.6465  25.6465  27.1704  27.5639  27.5639  27.8073
    28.5205  28.6361  28.6361  29.2716  29.2871  29.2871  29.5136  29.5136
    30.0344  30.0344  30.1805  30.1805  32.2860  32.5006  32.5420  32.5420
    32.9698  33.3971

          k = 0.4250 0.4250 0.4250 (  9213 PWs)   bands (ev):

   -73.4642 -73.4642 -73.4642 -73.4642 -39.6411 -39.6410 -39.6410 -39.6409
   -39.6383 -39.6383 -39.6381 -39.6381 -39.3864 -39.3864 -39.3863 -39.3863
    -2.5607  -2.3867  -2.3823  -2.3823   0.2310   0.2310   0.2775   0.3441
     6.0087   6.2740   6.2740   6.3436   7.2702   7.2702   7.4466   7.8906
     8.2760   8.2760   8.4777   8.4777  10.2746  10.2746  10.4227  10.4227
    10.4394  10.7359  10.7497  10.7497  11.7126  11.7277  11.7277  11.8595
    11.8595  11.9113  11.9619  11.9619  12.4144  12.4784  12.4784  12.4873
    14.2486  14.3643  14.3658  14.3658  15.1658  15.1658  15.2771  15.2771
    15.9983  16.0442  16.1496  16.1496  19.5156  19.6524  19.6524  20.1565
    20.7156  20.9637  20.9637  21.1110  21.1110  21.3685  21.3864  21.3864
    21.9463  21.9463  22.1996  22.1996  22.9865  23.3061  23.3071  23.3071
    25.4374  25.6579  25.8644  25.8644  26.7550  27.3614  27.3614  27.7851
    28.4024  28.5093  28.5093  29.0185  29.0185  29.5235  29.5235  29.6693
    30.0912  30.0912  30.3887  30.3887  32.0470  32.3127  32.5124  32.5124
    32.8782  33.5779

          k = 0.4000 0.4000 0.4000 (  9198 PWs)   bands (ev):

   -73.4642 -73.4642 -73.4642 -73.4642 -39.6411 -39.6409 -39.6409 -39.6408
   -39.6383 -39.6383 -39.6381 -39.6381 -39.3864 -39.3863 -39.3863 -39.3863
    -2.6731  -2.3805  -2.3731  -2.3731   0.2614   0.2614   0.3443   0.4425
     5.8579   6.2239   6.2239   6.3534   7.1978   7.1978   7.4478   8.1371
     8.2644   8.2644   8.5513   8.5513  10.1320  10.1320  10.2345  10.3358
    10.3358  10.6632  10.7324  10.7324  11.7682  11.7701  11.7701  11.9136
    11.9136  12.0231  12.0652  12.0652  12.4057  12.5126  12.5126  12.5318
    14.2413  14.4395  14.4432  14.4432  15.1120  15.1120  15.3106  15.3106
    15.8879  15.9677  16.1465  16.1465  19.3758  19.5290  19.5290  20.3210
    20.6053  20.8765  20.8765  21.0374  21.0374  21.4327  21.4327  21.5259
    22.0009  22.0009  22.3761  22.3761  22.9449  23.4958  23.4958  23.5082
    25.4416  25.7903  26.0749  26.0749  26.3898  27.1930  27.1930  27.7304
    28.2835  28.3101  28.3101  28.7630  28.7630  29.5301  29.5301  29.9892
    30.1456  30.1456  30.6052  30.6052  31.8251  32.1362  32.5117  32.5117
    32.7330  33.7004

          k = 0.3750 0.3750 0.3750 (  9201 PWs)   bands (ev):

   -73.4642 -73.4642 -73.4642 -73.4642 -39.6411 -39.6408 -39.6408 -39.6406
   -39.6385 -39.6385 -39.6382 -39.6382 -39.3864 -39.3863 -39.3863 -39.3862
    -2.8008  -2.3717  -2.3610  -2.3610   0.2975   0.2975   0.4275   0.5469
     5.7235   6.1602   6.1602   6.3700   7.1413   7.1413   7.4452   8.2495
     8.2495   8.3933   8.5943   8.5943   9.9951   9.9951  10.0308  10.2417
    10.2417  10.5804  10.7287  10.7287  11.8141  11.8141  11.8268  11.9655
    11.9655  12.1066  12.1616  12.1616  12.3996  12.5486  12.5486  12.5827
    14.2331  14.5256  14.5359  14.5359  15.0418  15.0418  15.3529  15.3529
    15.7604  15.8861  16.1456  16.1456  19.2811  19.4294  19.4294  20.4656
    20.5400  20.7446  20.7446  21.0138  21.0138  21.4760  21.4760  21.6233
    22.0810  22.0810  22.5644  22.5644  22.8849  23.7079  23.7079  23.7432
    25.4447  25.9172  26.1094  26.1852  26.1852  27.1144  27.1144  27.6180
    28.0863  28.0863  28.2099  28.5596  28.5596  29.4820  29.4820  30.1624
    30.2151  30.2151  30.8365  30.8365  31.6260  32.0245  32.5022  32.5022
    32.5482  33.7237

          k = 0.3500 0.3500 0.3500 (  9207 PWs)   bands (ev):

   -73.4642 -73.4642 -73.4642 -73.4642 -39.6411 -39.6407 -39.6407 -39.6404
   -39.6387 -39.6387 -39.6382 -39.6382 -39.3864 -39.3863 -39.3863 -39.3863
    -2.9373  -2.3598  -2.3457  -2.3457   0.3375   0.3375   0.5255   0.6470
     5.6146   6.0881   6.0881   6.3961   7.1030   7.1030   7.4363   8.2290
     8.2290   8.5983   8.5983   8.6472   9.8375   9.8708   9.8708  10.1550
    10.1550  10.4896  10.7330  10.7330  11.8607  11.8607  11.8850  12.0111
    12.0111  12.1514  12.2447  12.2447  12.4058  12.5801  12.5801  12.6333
    14.2242  14.6121  14.6389  14.6389  14.9571  14.9571  15.4035  15.4035
    15.6228  15.8172  16.1496  16.1496  19.2332  19.3621  19.3621  20.3501
    20.6327  20.6327  20.7604  21.0091  21.0091  21.4988  21.4988  21.6649
    22.1863  22.1863  22.7624  22.7624  22.8000  23.9164  23.9164  23.9706
    25.4414  25.9365  26.0315  26.1577  26.1578  27.1115  27.1115  27.4550
    27.8555  27.8555  28.1979  28.4555  28.4555  29.4125  29.4125  30.1325
    30.2821  30.2821  31.0757  31.0757  31.4630  31.9422  32.4132  32.4537
    32.4537  33.6048

          k = 0.3250 0.3250 0.3250 (  9192 PWs)   bands (ev):

   -73.4642 -73.4642 -73.4642 -73.4642 -39.6411 -39.6406 -39.6406 -39.6402
   -39.6387 -39.6387 -39.6382 -39.6382 -39.3864 -39.3863 -39.3863 -39.3862
    -3.0771  -2.3444  -2.3272  -2.3272   0.3790   0.3790   0.6353   0.7351
     5.5367   6.0145   6.0145   6.4346   7.0804   7.0804   7.4188   8.1971
     8.1971   8.5707   8.5707   8.8870   9.6630   9.7554   9.7554  10.0847
    10.0847  10.3909  10.7413  10.7413  11.9091  11.9091  11.9412  12.0498
    12.0498  12.1523  12.3119  12.3119  12.4322  12.6015  12.6015  12.6776
    14.2139  14.6864  14.7418  14.7418  14.8688  14.8688  15.4618  15.4618
    15.4798  15.7831  16.1612  16.1612  19.2268  19.3294  19.3294  20.2269
    20.5604  20.5604  21.0117  21.0232  21.0232  21.4994  21.4994  21.6641
    22.3066  22.3066  22.6916  22.9691  22.9691  24.0919  24.0919  24.1467
    25.4167  25.8656  26.0663  26.0663  26.1546  27.0860  27.0860  27.2843
    27.6268  27.6268  28.2274  28.4492  28.4492  29.3841  29.3841  29.9186
    30.3344  30.3344  31.2990  31.2990  31.3042  31.7838  32.3668  32.3668
    32.4544  33.3874

          k = 0.3000 0.3000 0.3000 (  9186 PWs)   bands (ev):

   -73.4642 -73.4642 -73.4642 -73.4642 -39.6411 -39.6405 -39.6405 -39.6400
   -39.6389 -39.6389 -39.6382 -39.6382 -39.3865 -39.3862 -39.3862 -39.3862
    -3.2161  -2.3254  -2.3056  -2.3056   0.4198   0.4198   0.7502   0.8092
     5.4924   5.9470   5.9470   6.4887   7.0694   7.0694   7.3909   8.1435
     8.1435   8.5342   8.5342   9.0919   9.5231   9.6423   9.6423  10.0294
    10.0294  10.2840  10.7498  10.7498  11.9576  11.9577  11.9946  12.0822
    12.0822  12.1205  12.3629  12.3629  12.4715  12.6084  12.6084  12.7130
    14.2006  14.7329  14.7329  14.7399  14.8936  14.8936  15.3358  15.5263
    15.5263  15.7999  16.1817  16.1817  19.2512  19.3303  19.3303  20.1139
    20.5353  20.5353  21.0568  21.0568  21.2714  21.4816  21.4816  21.6360
    22.4274  22.4274  22.5739  23.1814  23.1814  24.2135  24.2135  24.2534
    25.3394  25.8447  25.9789  25.9789  26.3423  27.0054  27.0054  27.1428
    27.4191  27.4191  28.2748  28.4628  28.4628  29.4336  29.4336  29.5943
    30.3723  30.3723  31.0771  31.4708  31.4708  31.6129  32.2840  32.2840
    32.5994  33.1685

          k = 0.2750 0.2750 0.2750 (  9198 PWs)   bands (ev):

   -73.4642 -73.4642 -73.4642 -73.4642 -39.6411 -39.6405 -39.6405 -39.6399
   -39.6390 -39.6390 -39.6383 -39.6383 -39.3866 -39.3863 -39.3862 -39.3862
    -3.3511  -2.3025  -2.2809  -2.2809   0.4575   0.4575   0.8280   0.9050
     5.4816   5.8920   5.8920   6.5615   7.0656   7.0656   7.3517   8.0609
     8.0609   8.5126   8.5126   9.1937   9.4769   9.5294   9.5294   9.9787
     9.9787  10.1706  10.7542  10.7542  12.0043  12.0043  12.0447  12.0741
    12.1090  12.1090  12.3980  12.3980  12.5106  12.5994  12.5994  12.7396
    14.1816  14.6364  14.6364  14.7746  15.0156  15.0156  15.1989  15.5950
    15.5950  15.8655  16.2106  16.2106  19.2905  19.3636  19.3636  20.0246
    20.5580  20.5580  21.1068  21.1068  21.4504  21.4504  21.5043  21.6125
    22.4696  22.5330  22.5330  23.3907  23.3907  24.2871  24.2871  24.3046
    25.1821  25.8471  25.9113  25.9113  26.5969  26.8819  26.8819  27.0453
    27.2594  27.2594  28.3227  28.4621  28.4621  29.2252  29.5091  29.5091
    30.3888  30.3888  30.7789  31.4547  31.5791  31.5791  32.2550  32.2550
    32.7060  33.0611

          k = 0.2500 0.2500 0.2500 (  9183 PWs)   bands (ev):

   -73.4642 -73.4642 -73.4642 -73.4642 -39.6411 -39.6404 -39.6404 -39.6395
   -39.6391 -39.6391 -39.6382 -39.6382 -39.3866 -39.3862 -39.3862 -39.3862
    -3.4797  -2.2760  -2.2534  -2.2534   0.4902   0.4902   0.8519   1.0356
     5.5014   5.8544   5.8544   6.6556   7.0653   7.0653   7.3017   7.9551
     7.9551   8.5148   8.5148   9.1445   9.4183   9.4183   9.5523   9.9207
     9.9207  10.0631  10.7501  10.7501  12.0222  12.0468  12.0468  12.0964
    12.1301  12.1301  12.4183  12.4183  12.5410  12.5770  12.5770  12.7588
    14.1542  14.5441  14.5441  14.7919  15.0880  15.1523  15.1523  15.6656
    15.6656  15.9615  16.2452  16.2452  19.3234  19.4289  19.4289  19.9800
    20.6234  20.6234  21.1601  21.1601  21.4166  21.4166  21.5267  21.7655
    22.4037  22.6088  22.6088  23.5800  23.5801  24.3206  24.3524  24.3524
    24.9582  25.8498  25.8498  25.8698  26.7253  26.7253  26.8264  27.0128
    27.1561  27.1561  28.3559  28.4852  28.4852  28.8745  29.5229  29.5229
    30.3442  30.3442  30.4627  31.2667  31.6873  31.6873  32.2576  32.2576
    32.6415  33.0899

          k = 0.2250 0.2250 0.2250 (  9180 PWs)   bands (ev):

   -73.4642 -73.4642 -73.4642 -73.4642 -39.6411 -39.6405 -39.6405 -39.6392
   -39.6392 -39.6392 -39.6382 -39.6382 -39.3866 -39.3862 -39.3862 -39.3861
    -3.6001  -2.2463  -2.2236  -2.2236   0.5161   0.5161   0.8479   1.1734
     5.5471   5.8374   5.8374   6.7722   7.0656   7.0656   7.2431   7.8401
     7.8401   8.5366   8.5366   9.0582   9.3117   9.3117   9.5865   9.8475
     9.8475  10.0039  10.7340  10.7340  11.9793  12.0815  12.0816  12.1446
    12.1446  12.1453  12.4250  12.4250  12.5482  12.5482  12.5582  12.7711
    14.1168  14.4676  14.4676  14.7664  15.0468  15.2988  15.2988  15.7368
    15.7368  16.0651  16.2815  16.2815  19.3341  19.5268  19.5268  20.0004
    20.7217  20.7217  21.1796  21.1796  21.4120  21.4120  21.5001  21.9100
    22.3961  22.6466  22.6466  23.7294  23.7294  24.3155  24.4556  24.4556
    24.7101  25.7849  25.7849  25.9035  26.5575  26.5575  26.8307  27.0815
    27.0815  27.1299  28.3442  28.5609  28.5609  28.6428  29.4504  29.4504
    30.1747  30.2128  30.2128  31.0463  31.7946  31.7946  32.2681  32.2681
    32.5085  32.9860

          k = 0.2000 0.2000 0.2000 (  9186 PWs)   bands (ev):

   -73.4643 -73.4642 -73.4642 -73.4642 -39.6411 -39.6405 -39.6405 -39.6392
   -39.6392 -39.6390 -39.6383 -39.6383 -39.3866 -39.3862 -39.3862 -39.3861
    -3.7107  -2.2139  -2.1922  -2.1922   0.5345   0.5345   0.8233   1.3117
     5.6132   5.8422   5.8422   6.9095   7.0642   7.0642   7.1808   7.7295
     7.7295   8.5693   8.5693   8.9733   9.2132   9.2132   9.5023   9.7563
     9.7563  10.0297  10.7042  10.7042  11.9467  12.0966  12.0966  12.1578
    12.1579  12.1944  12.4219  12.4219  12.5224  12.5224  12.5614  12.7764
    14.0694  14.4109  14.4109  14.6870  15.0964  15.4514  15.4514  15.8091
    15.8091  16.1571  16.3159  16.3159  19.3306  19.6570  19.6570  20.0856
    20.8298  20.8298  21.1451  21.1451  21.4614  21.4614  21.4981  21.9699
    22.4264  22.6516  22.6516  23.8324  23.8324  24.2999  24.4841  24.6036
    24.6036  25.7262  25.7262  25.9362  26.3998  26.3998  26.6828  27.0131
    27.0131  27.2116  28.2809  28.6041  28.6645  28.6645  29.3262  29.3262
    29.9596  30.0381  30.0381  30.8170  31.7663  31.7663  32.3042  32.3042
    32.3676  33.0070

          k = 0.1750 0.1750 0.1750 (  9186 PWs)   bands (ev):

   -73.4643 -73.4642 -73.4642 -73.4642 -39.6411 -39.6406 -39.6406 -39.6392
   -39.6392 -39.6388 -39.6383 -39.6383 -39.3866 -39.3862 -39.3862 -39.3861
    -3.8104  -2.1798  -2.1601  -2.1601   0.5451   0.5451   0.7835   1.4463
     5.6941   5.8683   5.8683   7.0462   7.0589   7.0589   7.1374   7.6338
     7.6338   8.6001   8.6001   8.8868   9.1291   9.1291   9.3552   9.6498
     9.6498  10.0908  10.6611  10.6611  11.9225  12.0741  12.0742  12.1818
    12.1818  12.2438  12.4176  12.4176  12.5041  12.5042  12.5522  12.7749
    14.0116  14.3742  14.3742  14.5934  15.2002  15.6025  15.6025  15.8858
    15.8858  16.2254  16.3465  16.3465  19.3368  19.8151  19.8151  20.2197
    20.8678  20.8678  21.1546  21.1546  21.5296  21.5323  21.5323  21.9789
    22.4171  22.6401  22.6401  23.8940  23.8940  24.2636  24.3390  24.7561
    24.7561  25.6998  25.6998  25.9451  26.2644  26.2644  26.4164  26.9522
    26.9522  27.2464  28.2148  28.6616  28.7045  28.7045  29.2215  29.2215
    29.8592  29.8927  29.8927  30.6026  31.6314  31.6314  32.2192  32.2305
    32.2305  33.1184

          k = 0.1500 0.1500 0.1500 (  9189 PWs)   bands (ev):

   -73.4643 -73.4642 -73.4642 -73.4642 -39.6411 -39.6407 -39.6407 -39.6392
   -39.6392 -39.6387 -39.6383 -39.6383 -39.3867 -39.3862 -39.3862 -39.3862
    -3.8984  -2.1452  -2.1284  -2.1284   0.5485   0.5485   0.7343   1.5735
     5.7848   5.9127   5.9127   7.0355   7.0479   7.0479   7.2588   7.5619
     7.5619   8.6078   8.6078   8.7800   9.0720   9.0720   9.2101   9.5365
     9.5365  10.1490  10.6063  10.6063  11.9015  12.0219  12.0219  12.2110
    12.2111  12.2926  12.4196  12.4196  12.4917  12.4917  12.5339  12.7683
    13.9410  14.3545  14.3545  14.5094  15.3338  15.7379  15.7379  15.9725
    15.9725  16.2661  16.3759  16.3759  19.3688  19.9869  19.9869  20.3901
    20.7881  20.7881  21.2800  21.2800  21.5934  21.6000  21.6000  21.9640
    22.3252  22.6275  22.6275  23.9113  23.9113  24.1506  24.3497  24.8634
    24.8634  25.7339  25.7339  25.8104  26.1594  26.1594  26.1926  26.9076
    26.9076  27.2774  28.1182  28.6055  28.6055  28.7554  29.1724  29.1724
    29.8489  29.8489  29.8686  30.4256  31.4539  31.4539  32.0477  32.0477
    32.0481  33.1655

          k = 0.1250 0.1250 0.1250 (  9195 PWs)   bands (ev):

   -73.4643 -73.4642 -73.4642 -73.4642 -39.6411 -39.6408 -39.6408 -39.6392
   -39.6391 -39.6387 -39.6383 -39.6383 -39.3867 -39.3862 -39.3862 -39.3862
    -3.9739  -2.1116  -2.0983  -2.0983   0.5463   0.5463   0.6812   1.6895
     5.8806   5.9707   5.9707   6.9861   7.0301   7.0301   7.4327   7.5214
     7.5214   8.5669   8.5669   8.6322   9.0551   9.0551   9.1075   9.4307
     9.4307  10.1951  10.5421  10.5421  11.8773  11.9556  11.9556  12.2398
    12.2398  12.3388  12.4276  12.4276  12.4825  12.4825  12.5118  12.7594
    13.8551  14.3474  14.3474  14.4454  15.4835  15.8433  15.8433  16.0676
    16.0676  16.2819  16.4141  16.4141  19.4289  20.1260  20.1260  20.5909
    20.7151  20.7151  21.4349  21.4349  21.6652  21.6652  21.6725  21.9173
    22.1943  22.6154  22.6154  23.8801  23.8801  24.0398  24.4134  24.9056
    24.9056  25.4355  25.8252  25.8252  26.0935  26.0935  26.1710  26.8787
    26.8787  27.2800  28.0205  28.4418  28.4418  28.8754  29.1257  29.1257
    29.9133  29.9146  29.9146  30.3176  31.2424  31.2424  31.8277  31.8277
    31.8390  33.1485

          k = 0.1000 0.1000 0.1000 (  9159 PWs)   bands (ev):

   -73.4643 -73.4641 -73.4641 -73.4641 -39.6410 -39.6408 -39.6408 -39.6390
   -39.6390 -39.6386 -39.6382 -39.6382 -39.3866 -39.3861 -39.3860 -39.3860
    -4.0363  -2.0805  -2.0710  -2.0710   0.5402   0.5402   0.6295   1.7905
     5.9759   6.0350   6.0350   6.9480   7.0072   7.0072   7.5166   7.5166
     7.6028   8.4502   8.4713   8.4713   9.0533   9.0672   9.0672   9.3528
     9.3528  10.2285  10.4718  10.4718  11.8468  11.8880  11.8880  12.2656
    12.2657  12.3802  12.4381  12.4382  12.4755  12.4755  12.4917  12.7503
    13.7566  14.3484  14.3484  14.4038  15.6377  15.9203  15.9203  16.1441
    16.1441  16.2789  16.4797  16.4797  19.5108  20.1370  20.1370  20.7809
    20.7809  20.8179  21.5504  21.5504  21.6570  21.7578  21.7578  21.8903
    22.1165  22.5908  22.5908  23.8125  23.8125  23.9345  24.4857  24.8935
    24.8935  25.0055  25.9357  25.9357  26.0764  26.0764  26.2110  26.8488
    26.8488  27.2150  27.9810  28.2926  28.2926  29.0254  29.1054  29.1054
    29.9118  30.0191  30.0191  30.3091  30.9967  30.9967  31.5880  31.6050
    31.6050  33.1342

          k = 0.0750 0.0750 0.0750 (  9159 PWs)   bands (ev):

   -73.4643 -73.4641 -73.4641 -73.4641 -39.6410 -39.6409 -39.6409 -39.6391
   -39.6391 -39.6384 -39.6381 -39.6381 -39.3867 -39.3861 -39.3860 -39.3860
    -4.0853  -2.0539  -2.0480  -2.0480   0.5323   0.5323   0.5839   1.8731
     6.0632   6.0972   6.0972   6.9282   6.9834   6.9834   7.5490   7.5490
     7.7535   8.2619   8.3364   8.3364   9.0314   9.0727   9.0727   9.3260
     9.3260  10.2505  10.4003  10.4003  11.8116  11.8283  11.8283  12.2871
    12.2871  12.4145  12.4482  12.4483  12.4706  12.4706  12.4776  12.7426
    13.6560  14.3533  14.3533  14.3808  15.7855  15.9793  15.9793  16.1790
    16.1790  16.2623  16.5764  16.5764  19.6042  20.0353  20.0353  20.9850
    20.9850  21.0622  21.4698  21.6001  21.6001  21.8850  21.8850  21.9692
    22.1062  22.5332  22.5332  23.7394  23.7394  23.8357  24.4783  24.6574
    24.8408  24.8408  26.0283  26.0283  26.1164  26.1164  26.2676  26.7938
    26.7938  27.0928  28.0014  28.1866  28.1866  29.1598  29.1598  29.2084
    29.8747  30.1093  30.1093  30.3604  30.7336  30.7336  31.3057  31.3861
    31.3861  33.1430

          k = 0.0500 0.0500 0.0500 (  9150 PWs)   bands (ev):

   -73.4643 -73.4641 -73.4641 -73.4641 -39.6410 -39.6410 -39.6410 -39.6391
   -39.6391 -39.6381 -39.6381 -39.6380 -39.3868 -39.3860 -39.3860 -39.3860
    -4.1205  -2.0333  -2.0305  -2.0305   0.5249   0.5249   0.5482   1.9344
     6.1334   6.1486   6.1486   6.9278   6.9636   6.9636   7.6171   7.6171
     7.8704   8.0960   8.1812   8.1812   9.0273   9.0573   9.0573   9.3466
     9.3466  10.2630  10.3352  10.3352  11.7777  11.7824  11.7825  12.3031
    12.3031  12.4400  12.4558  12.4559  12.4678  12.4678  12.4703  12.7368
    13.5683  14.3590  14.3590  14.3700  15.9170  16.0268  16.0268  16.1820
    16.1820  16.2341  16.6767  16.6767  19.6969  19.9167  19.9167  21.2401
    21.2401  21.2659  21.3069  21.6182  21.6182  21.9860  21.9860  21.9909
    22.1815  22.4380  22.4380  23.6911  23.6911  23.7514  24.1693  24.6410
    24.7661  24.7661  26.0913  26.0913  26.2048  26.2048  26.3290  26.7037
    26.7037  26.9605  28.0403  28.1228  28.1228  29.3037  29.3037  29.4185
    29.8429  30.1450  30.1450  30.4138  30.5031  30.5031  31.0166  31.1757
    31.1757  33.1620

          k = 0.0250 0.0250 0.0250 (  9108 PWs)   bands (ev):

   -73.4643 -73.4641 -73.4641 -73.4641 -39.6409 -39.6409 -39.6409 -39.6390
   -39.6390 -39.6380 -39.6380 -39.6379 -39.3866 -39.3859 -39.3859 -39.3858
    -4.1417  -2.0203  -2.0196  -2.0196   0.5197   0.5197   0.5256   1.9722
     6.1784   6.1822   6.1822   6.9395   6.9509   6.9509   7.7158   7.7158
     7.9327   7.9899   8.0246   8.0246   9.0304   9.0395   9.0395   9.3784
     9.3784  10.2687  10.2879  10.2879  11.7531  11.7538  11.7538  12.3129
    12.3129  12.4553  12.4594  12.4594  12.4676  12.4677  12.4681  12.7333
    13.5084  14.3632  14.3632  14.3658  16.0230  16.0628  16.0628  16.1707
    16.1707  16.1949  16.7501  16.7501  19.7698  19.8301  19.8301  21.1175
    21.4924  21.4924  21.5120  21.6273  21.6273  21.9506  21.9874  21.9874
    22.2845  22.3531  22.3531  23.6742  23.6742  23.6933  23.8998  24.6631
    24.6986  24.6986  26.1309  26.1309  26.3162  26.3162  26.3828  26.5894
    26.5894  26.8569  28.0696  28.0899  28.0899  29.5176  29.5176  29.6249
    29.8245  30.0192  30.0192  30.4267  30.4267  30.4418  30.7710  31.0003
    31.0003  33.1750

          k = 0.0000 0.0000 0.0000 (  9093 PWs)   bands (ev):

   -73.4643 -73.4641 -73.4641 -73.4641 -39.6408 -39.6408 -39.6408 -39.6388
   -39.6388 -39.6380 -39.6380 -39.6380 -39.3865 -39.3859 -39.3859 -39.3859
    -4.1488  -2.0159  -2.0159  -2.0159   0.5178   0.5178   0.5178   1.9849
     6.1938   6.1938   6.1938   6.9466   6.9466   6.9466   7.8019   7.8019
     7.9183   7.9183   7.9183   7.9861   9.0325   9.0325   9.0325   9.3923
     9.3923  10.2702  10.2702  10.2702  11.7441  11.7441  11.7441  12.3162
    12.3162  12.4600  12.4600  12.4600  12.4683  12.4683  12.4683  12.7322
    13.4870  14.3648  14.3648  14.3648  16.0784  16.0784  16.0784  16.1626
    16.1626  16.1626  16.7769  16.7769  19.7986  19.7986  19.7986  21.0615
    21.6079  21.6079  21.6079  21.6669  21.6669  21.9148  21.9148  21.9148
    22.3309  22.3309  22.3309  23.6723  23.6723  23.6723  23.7948  24.6710
    24.6710  24.6710  26.1446  26.1446  26.4065  26.4065  26.4065  26.4974
    26.4974  26.8157  28.0799  28.0799  28.0799  29.7321  29.7321  29.7321
    29.8127  29.8127  29.8127  30.4396  30.4396  30.4396  30.6691  30.9238
    30.9238  33.1789

          k = 0.0250 0.0000 0.0000 (  9106 PWs)   bands (ev):

   -73.4643 -73.4641 -73.4641 -73.4641 -39.6409 -39.6408 -39.6408 -39.6390
   -39.6389 -39.6381 -39.6380 -39.6380 -39.3866 -39.3859 -39.3859 -39.3859
    -4.1464  -2.0211  -2.0153  -2.0152   0.5187   0.5189   0.5198   1.9807
     6.1840   6.1917   6.1929   6.9353   6.9446   6.9602   7.7306   7.8067
     7.9255   7.9267   7.9816   7.9935   9.0289   9.0322   9.0405   9.3819
     9.3933  10.2660  10.2677  10.2882  11.7435  11.7488  11.7495  12.3135
    12.3166  12.4588  12.4591  12.4599  12.4681  12.4681  12.4683  12.7326
    13.4942  14.3633  14.3644  14.3660  16.0617  16.0692  16.0705  16.1626
    16.1720  16.1743  16.7591  16.7766  19.7984  19.8026  19.8060  21.0807
    21.5459  21.6058  21.6062  21.6064  21.6293  21.9219  21.9557  21.9586
    22.3101  22.3320  22.3463  23.6586  23.6720  23.6934  23.8307  24.6663
    24.6732  24.6902  26.1308  26.1494  26.3287  26.4029  26.4139  26.4958
    26.5655  26.8303  28.0668  28.0877  28.0881  29.5895  29.6415  29.7208
    29.7934  29.9059  29.9451  30.4071  30.4330  30.4708  30.7033  30.9272
    30.9723  33.1747

          k = 0.0500 0.0000 0.0000 (  9102 PWs)   bands (ev):

   -73.4643 -73.4641 -73.4641 -73.4641 -39.6409 -39.6409 -39.6408 -39.6390
   -39.6389 -39.6380 -39.6380 -39.6379 -39.3866 -39.3859 -39.3859 -39.3858
    -4.1393  -2.0368  -2.0135  -2.0133   0.5211   0.5222   0.5256   1.9680
     6.1566   6.1855   6.1899   6.9037   6.9383   6.9989   7.6262   7.8207
     7.9469   7.9498   7.9683   8.1097   9.0182   9.0314   9.0646   9.3536
     9.3961  10.2538  10.2603  10.3387  11.7419  11.7626  11.7655  12.3056
    12.3180  12.4538  12.4550  12.4587  12.4676  12.4687  12.4713  12.7337
    13.5154  14.3587  14.3634  14.3695  16.0255  16.0473  16.0483  16.1626
    16.1935  16.1959  16.7071  16.7754  19.7974  19.8146  19.8270  21.1379
    21.4162  21.4753  21.5284  21.6015  21.6028  21.9414  22.0194  22.0250
    22.2700  22.3362  22.3887  23.6179  23.6700  23.7508  23.9308  24.6534
    24.6799  24.7458  26.0911  26.1639  26.2112  26.3924  26.4366  26.4893
    26.6536  26.8748  28.0290  28.1102  28.1105  29.4104  29.5260  29.6967
    29.7377  30.0282  30.0964  30.3395  30.4134  30.5609  30.7978  30.9332
    31.0876  33.1614

          k = 0.0750 0.0000 0.0000 (  9126 PWs)   bands (ev):

   -73.4643 -73.4641 -73.4641 -73.4641 -39.6410 -39.6409 -39.6409 -39.6391
   -39.6390 -39.6380 -39.6380 -39.6379 -39.3867 -39.3860 -39.3859 -39.3859
    -4.1275  -2.0624  -2.0105  -2.0100   0.5252   0.5276   0.5350   1.9472
     6.1165   6.1749   6.1841   6.8580   6.9272   7.0585   7.5238   7.8432
     7.9473   7.9814   7.9817   8.2315   9.0009   9.0308   9.1053   9.3150
     9.4008  10.2342  10.2484  10.4131  11.7399  11.7844  11.7914  12.2925
    12.3202  12.4428  12.4487  12.4552  12.4672  12.4712  12.4783  12.7356
    13.5496  14.3513  14.3619  14.3757  15.9814  16.0106  16.0234  16.1624
    16.2155  16.2194  16.6249  16.7729  19.7940  19.8342  19.8588  21.2311
    21.2651  21.3122  21.3888  21.5942  21.5991  21.9687  22.0010  22.0861
    22.2784  22.3463  22.4500  23.5526  23.6639  23.8311  24.0761  24.6356
    24.6923  24.8321  26.0301  26.0846  26.1886  26.3758  26.4743  26.4756
    26.7333  26.9474  27.9702  28.1393  28.1468  29.2327  29.4174  29.6522
    29.6797  30.1451  30.2385  30.2732  30.3831  30.6975  30.9317  30.9354
    31.2322  33.1453

          k = 0.1000 0.0000 0.0000 (  9150 PWs)   bands (ev):

   -73.4643 -73.4642 -73.4641 -73.4641 -39.6411 -39.6410 -39.6409 -39.6392
   -39.6391 -39.6381 -39.6381 -39.6381 -39.3868 -39.3860 -39.3860 -39.3859
    -4.1111  -2.0975  -2.0064  -2.0056   0.5308   0.5352   0.5474   1.9187
     6.0689   6.1598   6.1743   6.8056   6.9105   7.1344   7.4274   7.8731
     7.9203   8.0151   8.0284   8.3548   8.9776   9.0313   9.1629   9.2733
     9.4074  10.2082  10.2325  10.5021  11.7384  11.8125  11.8259  12.2745
    12.3232  12.4267  12.4405  12.4496  12.4668  12.4759  12.4891  12.7382
    13.5952  14.3411  14.3604  14.3847  15.9332  15.9628  15.9971  16.1619
    16.2297  16.2468  16.5177  16.7684  19.7858  19.8613  19.8986  21.1061
    21.1246  21.2323  21.3564  21.5857  21.5972  21.9058  21.9972  22.1356
    22.3394  22.3668  22.5211  23.4658  23.6497  23.9210  24.2420  24.6178
    24.7154  24.9412  25.9521  25.9540  26.2242  26.3544  26.4471  26.5325
    26.8073  27.0412  27.8957  28.1679  28.1939  29.0626  29.3193  29.5473
    29.6875  30.2214  30.2444  30.3495  30.3797  30.8629  30.9110  31.1015
    31.3883  33.1345

          k = 0.1250 0.0000 0.0000 (  9154 PWs)   bands (ev):

   -73.4643 -73.4642 -73.4641 -73.4641 -39.6410 -39.6409 -39.6409 -39.6392
   -39.6391 -39.6383 -39.6381 -39.6381 -39.3867 -39.3860 -39.3860 -39.3860
    -4.0900  -2.1414  -2.0013  -2.0001   0.5379   0.5451   0.5623   1.8830
     6.0180   6.1400   6.1587   6.7534   6.8871   7.2231   7.3388   7.8896
     7.9086   8.0456   8.0850   8.4772   8.9495   9.0348   9.2334   9.2368
     9.4158  10.1769  10.2133  10.5974  11.7384  11.8450  11.8675  12.2523
    12.3269  12.4054  12.4309  12.4422  12.4664  12.4825  12.5034  12.7414
    13.6501  14.3287  14.3593  14.3970  15.8826  15.9069  15.9706  16.1607
    16.2370  16.2746  16.3911  16.7614  19.7699  19.8955  19.9435  20.9198
    20.9438  21.0697  21.5016  21.5848  21.5985  21.7924  22.0203  22.1773
    22.4031  22.4081  22.5944  23.3614  23.6231  24.0098  24.3946  24.6058
    24.7660  25.0645  25.8150  25.8686  26.2722  26.3300  26.4052  26.6084
    26.8780  27.1494  27.8115  28.1914  28.2488  28.9050  29.2329  29.4350
    29.7307  30.1849  30.2660  30.3701  30.5270  30.8617  31.0421  31.2858
    31.5475  33.1366

          k = 0.1500 0.0000 0.0000 (  9154 PWs)   bands (ev):

   -73.4643 -73.4642 -73.4641 -73.4641 -39.6410 -39.6409 -39.6409 -39.6391
   -39.6390 -39.6384 -39.6381 -39.6380 -39.3867 -39.3861 -39.3860 -39.3860
    -4.0643  -2.1931  -1.9953  -1.9936   0.5464   0.5573   0.5791   1.8410
     5.9672   6.1155   6.1356   6.7073   6.8560   7.2588   7.3224   7.8582
     7.9474   8.0698   8.1492   8.5963   8.9179   9.0440   9.1982   9.3256
     9.4261  10.1416  10.1915  10.6921  11.7407  11.8799  11.9149  12.2269
    12.3313  12.3789  12.4209  12.4331  12.4661  12.4911  12.5215  12.7450
    13.7123  14.3144  14.3595  14.4132  15.8306  15.8464  15.9443  16.1584
    16.2366  16.2505  16.3018  16.7515  19.7434  19.9363  19.9922  20.7061
    20.7797  20.9050  21.5499  21.6034  21.6884  21.7037  22.0335  22.2153
    22.4589  22.4704  22.6647  23.2435  23.5810  24.0888  24.4881  24.6043
    24.8756  25.1930  25.6745  25.7790  26.3052  26.3349  26.3472  26.7035
    26.9431  27.2679  27.7241  28.2102  28.3075  28.7644  29.1579  29.3262
    29.8114  30.1594  30.2192  30.4341  30.6822  30.7807  31.2256  31.4819
    31.7052  33.1565

          k = 0.1750 0.0000 0.0000 (  9170 PWs)   bands (ev):

   -73.4643 -73.4642 -73.4641 -73.4641 -39.6410 -39.6409 -39.6408 -39.6392
   -39.6390 -39.6385 -39.6383 -39.6381 -39.3867 -39.3862 -39.3861 -39.3860
    -4.0341  -2.2519  -1.9885  -1.9863   0.5561   0.5718   0.5970   1.7933
     5.9187   6.0862   6.1041   6.6714   6.8162   7.1881   7.4307   7.8290
     7.9872   8.0865   8.2177   8.7085   8.8850   9.0634   9.1689   9.4270
     9.4381  10.1032  10.1676  10.7794  11.7460  11.9152  11.9661  12.2002
    12.3361  12.3471  12.4111  12.4223  12.4657  12.5017  12.5434  12.7490
    13.7798  14.2987  14.3616  14.4337  15.7782  15.7846  15.9188  16.1003
    16.1543  16.2278  16.3280  16.7386  19.7042  19.9832  20.0435  20.4905
    20.6141  20.7400  21.5421  21.6078  21.6118  21.8961  22.0359  22.2519
    22.5241  22.5340  22.7292  23.1169  23.5224  24.1515  24.5143  24.6157
    25.0403  25.3185  25.5317  25.6889  26.2734  26.2828  26.4154  26.8159
    26.9981  27.3939  27.6399  28.2291  28.3658  28.6464  29.0929  29.2306
    29.9257  30.1383  30.1646  30.4812  30.6717  30.8432  31.4075  31.6850
    31.8579  33.1969

          k = 0.2000 0.0000 0.0000 (  9146 PWs)   bands (ev):

   -73.4643 -73.4642 -73.4641 -73.4641 -39.6409 -39.6408 -39.6407 -39.6391
   -39.6390 -39.6384 -39.6383 -39.6381 -39.3866 -39.3861 -39.3860 -39.3860
    -3.9994  -2.3167  -1.9810  -1.9784   0.5670   0.5888   0.6154   1.7407
     5.8742   6.0526   6.0644   6.6476   6.7672   7.1268   7.5468   7.8046
     8.0249   8.0959   8.2863   8.8082   8.8544   9.0999   9.1455   9.4519
     9.5377  10.0627  10.1420  10.8527  11.7546  11.9491  12.0197  12.1752
    12.3100  12.3414  12.4026  12.4099  12.4654  12.5144  12.5686  12.7530
    13.8504  14.2822  14.3665  14.4594  15.7246  15.7262  15.8944  15.9447
    16.1476  16.2102  16.3523  16.7225  19.6521  20.0358  20.0974  20.2783
    20.4476  20.5762  21.5324  21.5581  21.6230  22.0296  22.1004  22.2882
    22.5699  22.6260  22.7864  22.9874  23.4497  24.1938  24.5007  24.6397
    25.2226  25.3879  25.4325  25.6009  26.1846  26.2662  26.5179  26.9397
    27.0381  27.5237  27.5673  28.2549  28.4193  28.5576  29.0354  29.1566
    30.0664  30.1120  30.1129  30.5040  30.5447  31.0045  31.5840  31.8915
    32.0033  33.2590

          k = 0.2250 0.0000 0.0000 (  9146 PWs)   bands (ev):

   -73.4643 -73.4642 -73.4641 -73.4641 -39.6409 -39.6407 -39.6407 -39.6392
   -39.6389 -39.6384 -39.6383 -39.6382 -39.3866 -39.3861 -39.3861 -39.3860
    -3.9603  -2.3867  -1.9731  -1.9701   0.5789   0.6083   0.6336   1.6842
     5.8349   6.0152   6.0184   6.6354   6.7093   7.0746   7.6698   7.7871
     8.0580   8.0990   8.3485   8.8314   8.8896   9.1273   9.1606   9.4675
     9.6542  10.0208  10.1151  10.9052  11.7663  11.9805  12.0739  12.1558
    12.2679  12.3470  12.3958  12.3964  12.4652  12.5293  12.5968  12.7566
    13.9226  14.2655  14.3752  14.4907  15.6672  15.6752  15.7888  15.8713
    16.1374  16.1834  16.3743  16.7035  19.5888  20.0740  20.0934  20.1538
    20.2817  20.4149  21.5238  21.5411  21.6358  22.0165  22.2990  22.3247
    22.6092  22.7314  22.8359  22.8678  23.3680  24.2142  24.4635  24.6735
    25.2447  25.3974  25.5182  25.5265  26.0826  26.2588  26.6465  27.0594
    27.0597  27.5209  27.6523  28.2934  28.4633  28.5049  28.9821  29.1110
    30.0665  30.0701  30.2255  30.4168  30.5012  31.1565  31.7528  32.0974
    32.1401  33.3417

          k = 0.2500 0.0000 0.0000 (  9158 PWs)   bands (ev):

   -73.4643 -73.4642 -73.4641 -73.4641 -39.6409 -39.6407 -39.6406 -39.6393
   -39.6389 -39.6385 -39.6384 -39.6383 -39.3866 -39.3861 -39.3861 -39.3860
    -3.9170  -2.4610  -1.9649  -1.9615   0.5916   0.6303   0.6510   1.6246
     5.8020   5.9687   5.9751   6.6333   6.6433   7.0309   7.7775   7.7985
     8.0841   8.0969   8.3953   8.8248   8.9536   9.1134   9.2458   9.4846
     9.7728   9.9782  10.0873  10.9303  11.7807  12.0081  12.1273  12.1463
    12.2214  12.3527  12.3800  12.3933  12.4652  12.5465  12.6268  12.7596
    13.9949  14.2494  14.3882  14.5283  15.5915  15.6259  15.6586  15.8500
    16.1226  16.1473  16.3935  16.6819  19.5176  19.8813  20.1186  20.1555
    20.2125  20.2575  21.5173  21.5549  21.6485  21.9980  22.3615  22.4408
    22.6432  22.8056  22.8467  22.8771  23.2848  24.2134  24.4094  24.7136
    25.1040  25.4328  25.5625  25.5938  25.9690  26.2639  26.8038  27.0605
    27.1383  27.5354  27.7737  28.3485  28.4919  28.4948  28.9311  29.0980
    29.9839  30.0411  30.3109  30.3950  30.4749  31.2844  31.9136  32.2685
    32.2973  33.4409

          k = 0.2750 0.0000 0.0000 (  9154 PWs)   bands (ev):

   -73.4643 -73.4642 -73.4641 -73.4641 -39.6408 -39.6407 -39.6406 -39.6394
   -39.6388 -39.6385 -39.6385 -39.6383 -39.3865 -39.3861 -39.3861 -39.3860
    -3.8695  -2.5387  -1.9565  -1.9529   0.6048   0.6551   0.6671   1.5626
     5.7761   5.9181   5.9333   6.5708   6.6392   6.9948   7.7760   7.9314
     8.0911   8.1019   8.4173   8.8437   9.0083   9.1025   9.3477   9.5034
     9.8866   9.9384  10.0587  10.9236  11.7968  12.0311  12.1497  12.1721
    12.1785  12.3585  12.3625  12.3941  12.4656  12.5659  12.6573  12.7614
    14.0662  14.2348  14.4061  14.5724  15.4506  15.5790  15.6050  15.8304
    16.1018  16.1020  16.4094  16.6580  19.4429  19.7037  19.9615  20.1054
    20.2216  20.2739  21.5133  21.5955  21.6595  21.9738  22.3981  22.4252
    22.6731  22.8973  22.9098  22.9659  23.2116  24.1939  24.3430  24.7560
    24.9686  25.3604  25.6304  25.7003  25.8461  26.2842  26.9893  27.0423
    27.1413  27.6410  27.8817  28.4211  28.4961  28.5301  28.8857  29.1169
    29.8623  30.0287  30.2362  30.4289  30.5673  31.3690  32.0672  32.3901
    32.4821  33.5491

          k = 0.3000 0.0000 0.0000 (  9150 PWs)   bands (ev):

   -73.4643 -73.4642 -73.4641 -73.4641 -39.6408 -39.6406 -39.6405 -39.6394
   -39.6388 -39.6385 -39.6385 -39.6383 -39.3865 -39.3861 -39.3861 -39.3860
    -3.8179  -2.6190  -1.9483  -1.9445   0.6185   0.6814   0.6827   1.4991
     5.7579   5.8691   5.8912   6.4937   6.6512   6.9649   7.7825   8.0661
     8.0828   8.1111   8.4131   8.8904   9.0613   9.0935   9.4583   9.5235
     9.8866  10.0068  10.0297  10.8837  11.8133  12.0459  12.1249  12.1667
    12.2258  12.3432  12.3643  12.3993  12.4667  12.5875  12.6870  12.7614
    14.1359  14.2228  14.4289  14.6231  15.2971  15.5352  15.5784  15.8127
    16.0473  16.0746  16.4219  16.6325  19.3689  19.5441  19.8129  19.9598
    20.2912  20.3377  21.5121  21.6581  21.6667  21.9428  22.3161  22.4343
    22.6997  22.9333  23.0551  23.0734  23.1881  24.1591  24.2680  24.7977
    24.8423  25.2943  25.6371  25.7158  25.8201  26.3215  27.0089  27.0939
    27.1994  27.8079  27.9711  28.4644  28.5102  28.6081  28.8554  29.1581
    29.7282  30.0315  30.1801  30.3690  30.7342  31.3932  32.2101  32.5069
    32.6341  33.3582

          k = 0.3250 0.0000 0.0000 (  9138 PWs)   bands (ev):

   -73.4643 -73.4642 -73.4641 -73.4641 -39.6407 -39.6405 -39.6404 -39.6395
   -39.6387 -39.6386 -39.6385 -39.6383 -39.3865 -39.3861 -39.3861 -39.3859
    -3.7624  -2.7012  -1.9403  -1.9366   0.6323   0.6937   0.7131   1.4348
     5.7479   5.8235   5.8500   6.4138   6.6674   6.9400   7.7963   8.0733
     8.1125   8.1973   8.3923   8.9589   9.0851   9.1156   9.5450   9.5727
     9.8430  10.0005  10.1095  10.8129  11.8289  12.0346  12.1000  12.1949
    12.2681  12.3225  12.3699  12.4090  12.4691  12.6110  12.7143  12.7590
    14.2037  14.2143  14.4561  14.6802  15.1467  15.4951  15.5652  15.7966
    15.9846  16.0394  16.4310  16.6059  19.2995  19.4050  19.6751  19.8221
    20.3635  20.4038  21.5140  21.6687  21.7380  21.9032  22.1873  22.4692
    22.7237  22.9468  23.0489  23.2520  23.2857  24.1133  24.1882  24.7312
    24.8364  25.2377  25.5800  25.6180  25.9243  26.3763  26.9662  27.0258
    27.4283  28.0022  28.0373  28.3916  28.6128  28.7212  28.8467  29.1950
    29.6221  30.0440  30.1306  30.3026  30.8869  31.3519  32.3243  32.6206
    32.7199  33.2108

          k = 0.3500 0.0000 0.0000 (  9134 PWs)   bands (ev):

   -73.4642 -73.4642 -73.4641 -73.4641 -39.6406 -39.6404 -39.6404 -39.6395
   -39.6387 -39.6386 -39.6386 -39.6383 -39.3864 -39.3861 -39.3861 -39.3859
    -3.7032  -2.7846  -1.9328  -1.9293   0.6459   0.7036   0.7465   1.3704
     5.7462   5.7827   5.8110   6.3332   6.6867   6.9190   7.8166   8.0636
     8.1077   8.2923   8.3931   9.0422   9.0761   9.1719   9.5676   9.6883
     9.7980   9.9714  10.2001  10.7160  11.8422  11.9924  12.1050  12.2305
    12.3006  12.3040  12.3753  12.4221  12.4743  12.6358  12.7380  12.7535
    14.2106  14.2693  14.4862  14.7433  15.0026  15.4593  15.5634  15.7818
    15.9150  15.9961  16.4370  16.5791  19.2381  19.2885  19.5498  19.6936
    20.4377  20.4716  21.5188  21.6646  21.8310  21.8543  22.0567  22.5018
    22.7451  22.9493  23.0299  23.4034  23.4256  24.0604  24.1075  24.6436
[...]
    27.5287  27.5655  28.2201  28.3380  28.3876  29.3973  29.4682  29.6745
    29.9207  30.0378  30.6465  31.2360  31.6284  31.9613  32.3262  32.4850
    33.0975  33.2018

          k = 0.3500 0.3500 0.0000 (  9180 PWs)   bands (ev):

   -73.4642 -73.4642 -73.4642 -73.4642 -39.6408 -39.6406 -39.6400 -39.6399
   -39.6391 -39.6390 -39.6384 -39.6383 -39.3865 -39.3862 -39.3862 -39.3862
    -3.2925  -2.4976  -2.4948  -2.0813   0.5946   0.6541   0.8227   0.9962
     5.4126   5.5240   6.0786   6.0859   6.7821   7.3745   7.4331   7.7284
     8.4028   8.7582   9.0214   9.0775   9.3240   9.4048   9.5746   9.6244
     9.8812  10.3961  10.4558  11.1800  11.9079  11.9232  12.0060  12.1014
    12.2403  12.2639  12.4023  12.4133  12.4952  12.6163  12.6852  12.7329
    14.2270  14.3822  14.6534  14.7545  14.7732  14.9452  15.3652  15.3768
    15.8443  15.9805  16.1674  16.3650  19.4855  19.5220  19.7547  19.9019
    20.1930  20.2939  20.4641  20.9006  21.0148  21.3057  21.6150  21.9900
    22.3059  22.7632  22.8557  23.8054  23.9546  24.3955  24.5246  24.9359
    25.1700  25.3231  25.6165  25.8879  26.2734  26.6501  26.7049  27.3145
    27.5160  27.5193  28.1575  28.3765  28.4532  29.2658  29.4999  29.7614
    29.8260  30.1653  30.7481  31.2797  31.3981  31.7005  32.2318  32.2943
    32.9413  33.2456

          k = 0.3250 0.3250 0.0000 (  9172 PWs)   bands (ev):

   -73.4642 -73.4642 -73.4642 -73.4642 -39.6408 -39.6406 -39.6400 -39.6398
   -39.6392 -39.6389 -39.6384 -39.6383 -39.3865 -39.3862 -39.3862 -39.3861
    -3.4012  -2.4637  -2.4607  -2.0366   0.5818   0.6553   0.8215   1.0680
     5.4329   5.5444   6.1282   6.1953   6.7355   7.3381   7.3476   7.7380
     8.3223   8.7080   8.9269   9.0394   9.2784   9.4242   9.6033   9.7156
     9.8022  10.3108  10.3819  11.2274  11.9007  11.9652  12.0186  12.1220
    12.2032  12.2661  12.3489  12.3993  12.5171  12.6163  12.6709  12.7423
    14.1782  14.3573  14.6296  14.8142  14.8464  14.9277  15.4740  15.4744
    15.8481  15.9684  16.1761  16.3969  19.4326  19.5877  19.7625  19.9617
    20.1465  20.3398  20.4540  20.9302  21.0809  21.4812  21.7318  22.0423
    22.3505  22.8547  22.8862  23.8539  23.8932  24.4147  24.4204  24.7469
    25.1558  25.3151  25.6183  25.9153  26.2219  26.5412  26.7085  27.1876
    27.4826  27.5640  28.1625  28.3887  28.5597  29.0871  29.5253  29.6046
    29.8977  30.3384  30.8201  31.2536  31.2600  31.4650  32.1187  32.1547
    32.7068  33.1609

          k = 0.3000 0.3000 0.0000 (  9162 PWs)   bands (ev):

   -73.4642 -73.4642 -73.4642 -73.4642 -39.6408 -39.6406 -39.6400 -39.6397
   -39.6391 -39.6389 -39.6384 -39.6382 -39.3865 -39.3862 -39.3861 -39.3861
    -3.5048  -2.4258  -2.4227  -2.0041   0.5708   0.6564   0.8132   1.1482
     5.4674   5.5726   6.1401   6.3183   6.7353   7.2501   7.3157   7.7299
     8.2563   8.6742   8.8263   8.9806   9.2167   9.4236   9.6152   9.7249
     9.8303  10.2275  10.2844  11.2405  11.9075  11.9952  12.0420  12.1523
    12.1626  12.2630  12.3030  12.3941  12.5360  12.6101  12.6533  12.7519
    14.1360  14.3373  14.5991  14.8688  14.8734  14.9615  15.5578  15.5782
    15.8888  15.9632  16.1848  16.4234  19.4182  19.6772  19.7547  20.0191
    20.1184  20.4090  20.4803  20.9716  21.1334  21.5979  21.8287  22.1749
    22.3769  22.8804  22.9231  23.8064  23.8279  24.3306  24.5385  24.5539
    25.0763  25.4185  25.6246  25.9858  26.1575  26.4098  26.7164  27.0570
    27.4542  27.4818  28.2435  28.3960  28.6416  28.8891  29.4408  29.5747
    29.9422  30.4529  30.7147  31.0846  31.3499  31.3502  31.9905  32.1101
    32.5158  32.9569

          k = 0.2750 0.2750 0.0000 (  9168 PWs)   bands (ev):

   -73.4642 -73.4642 -73.4642 -73.4642 -39.6409 -39.6407 -39.6401 -39.6396
   -39.6389 -39.6389 -39.6384 -39.6382 -39.3865 -39.3862 -39.3862 -39.3860
    -3.6024  -2.3847  -2.3816  -1.9826   0.5612   0.6556   0.7977   1.2360
     5.5153   5.6081   6.1300   6.4428   6.7731   7.1775   7.2778   7.7010
     8.2029   8.6617   8.7284   8.9116   9.1462   9.4123   9.5829   9.6591
     9.9372  10.1591  10.1769  11.2169  11.9311  11.9971  12.0841  12.1235
    12.1888  12.2368  12.2854  12.3965  12.5480  12.5980  12.6328  12.7607
    14.0989  14.3220  14.5627  14.7929  14.9381  15.0971  15.6282  15.6763
    15.9499  15.9737  16.1936  16.4453  19.4359  19.7321  19.7879  20.0445
    20.1574  20.4896  20.5454  21.0238  21.1689  21.6594  21.8926  22.3621
    22.4000  22.8555  22.9502  23.7000  23.7821  24.2787  24.3345  24.7450
    24.9910  25.5598  25.6330  26.0693  26.0826  26.2678  26.7264  26.9362
    27.2405  27.5350  28.3328  28.3812  28.6850  28.6910  29.3013  29.6359
    29.9462  30.3896  30.6335  30.8547  31.2976  31.5189  31.8474  32.1989
    32.3776  32.7638

          k = 0.2500 0.2500 0.0000 (  9158 PWs)   bands (ev):

   -73.4643 -73.4642 -73.4641 -73.4641 -39.6409 -39.6407 -39.6402 -39.6395
   -39.6389 -39.6389 -39.6385 -39.6382 -39.3865 -39.3862 -39.3861 -39.3860
    -3.6933  -2.3411  -2.3381  -1.9706   0.5529   0.6518   0.7758   1.3293
     5.5750   5.6507   6.1131   6.5598   6.8335   7.1308   7.2344   7.6524
     8.1549   8.6438   8.6684   8.8400   9.0715   9.3961   9.4857   9.6165
     9.9591  10.1142  10.1305  11.1611  11.9675  11.9834  12.0717  12.1446
    12.1988  12.2289  12.2851  12.4038  12.5513  12.5813  12.6094  12.7672
    14.0638  14.3114  14.5219  14.7018  15.0231  15.2487  15.6856  15.7690
    15.9736  16.0434  16.2028  16.4642  19.4797  19.7038  19.9132  20.0623
    20.2453  20.5788  20.6431  21.0868  21.1868  21.6991  21.9072  22.4277
    22.5122  22.8799  22.9249  23.5753  23.7340  24.1469  24.2890  24.9003
    24.9768  25.6344  25.7043  26.0047  26.1287  26.1404  26.7423  26.8052
    26.9890  27.6342  28.3359  28.3840  28.5224  28.6883  29.1916  29.7202
    29.8738  30.1895  30.6360  30.6468  31.2548  31.6382  31.6969  32.2868
    32.3790  32.6440

          k = 0.2250 0.2250 0.0000 (  9176 PWs)   bands (ev):

   -73.4643 -73.4642 -73.4641 -73.4641 -39.6409 -39.6408 -39.6403 -39.6395
   -39.6389 -39.6388 -39.6385 -39.6383 -39.3866 -39.3862 -39.3862 -39.3861
    -3.7771  -2.2959  -2.2931  -1.9661   0.5458   0.6441   0.7484   1.4258
     5.6446   5.7000   6.1004   6.6537   6.9045   7.1245   7.1882   7.5897
     8.1010   8.5826   8.6702   8.7886   8.9948   9.3599   9.3782   9.5642
     9.8488  10.0932  10.1930  11.0809  11.9600  12.0078  12.0297  12.1672
    12.1956  12.2675  12.2878  12.4136  12.5459  12.5622  12.5837  12.7700
    14.0266  14.3058  14.4794  14.6135  15.1239  15.4114  15.7315  15.8570
    15.9955  16.1224  16.2124  16.4825  19.5454  19.6770  20.0480  20.0993
    20.3530  20.6775  20.7597  21.1609  21.1908  21.7386  21.8708  22.4439
    22.5370  22.8565  23.0204  23.4773  23.6561  23.9903  24.3502  24.8805
    25.1660  25.6048  25.8346  25.9369  26.0129  26.1920  26.5726  26.7743
    26.8137  27.7351  28.2607  28.2954  28.4924  28.6631  29.1437  29.7312
    29.8145  29.9834  30.4441  30.6559  31.2128  31.5552  31.6803  32.2279
    32.3416  32.8605

          k = 0.2000 0.2000 0.0000 (  9170 PWs)   bands (ev):

   -73.4643 -73.4642 -73.4642 -73.4642 -39.6409 -39.6409 -39.6405 -39.6394
   -39.6390 -39.6387 -39.6384 -39.6381 -39.3866 -39.3862 -39.3861 -39.3860
    -3.8532  -2.2500  -2.2475  -1.9673   0.5397   0.6324   0.7168   1.5226
     5.7216   5.7560   6.0968   6.7103   6.9785   7.1442   7.1670   7.5236
     8.0339   8.5464   8.6156   8.8048   8.9163   9.2260   9.3602   9.4953
     9.7150  10.0914  10.2602  10.9840  11.9301  11.9862  12.0371  12.1487
    12.2459  12.2886  12.3072  12.4237  12.5334  12.5427  12.5574  12.7687
    13.9816  14.3051  14.4388  14.5377  15.2386  15.5787  15.7698  15.9414
    16.0228  16.1906  16.2228  16.5032  19.6286  19.6575  20.1551  20.1820
    20.4750  20.7913  20.8656  21.2027  21.2463  21.7861  21.8054  22.3984
    22.5018  22.7821  23.1613  23.4129  23.6050  23.8778  24.4252  24.8672
    25.3606  25.5170  25.8752  25.9319  25.9464  26.2453  26.2667  26.7163
    26.8233  27.7725  28.1641  28.1717  28.5125  28.6331  29.1866  29.5607
    29.7938  29.8951  30.2949  30.6399  31.1520  31.4440  31.6414  32.1803
    32.2009  33.0874

          k = 0.1750 0.1750 0.0000 (  9161 PWs)   bands (ev):

   -73.4643 -73.4642 -73.4642 -73.4641 -39.6410 -39.6409 -39.6406 -39.6393
   -39.6390 -39.6386 -39.6383 -39.6381 -39.3866 -39.3861 -39.3861 -39.3860
    -3.9212  -2.2048  -2.2026  -1.9725   0.5344   0.6171   0.6825   1.6166
     5.8034   5.8185   6.1027   6.7371   7.0383   7.1213   7.2287   7.4797
     7.9565   8.5210   8.5269   8.8323   8.8610   9.1024   9.3430   9.4141
     9.5869  10.1034  10.3101  10.8762  11.8972  11.9418  12.0316  12.1597
    12.2928  12.2930  12.3412  12.4332  12.5170  12.5241  12.5326  12.7640
    13.9235  14.3090  14.4043  14.4791  15.3640  15.7402  15.8050  16.0253
    16.0519  16.2348  16.2412  16.5293  19.6485  19.7172  20.2327  20.2954
    20.6094  20.9101  20.9265  21.2765  21.3409  21.7387  21.8417  22.2603
    22.4628  22.7230  23.1535  23.3860  23.6749  23.8126  24.4844  24.8618
    25.3847  25.5378  25.7254  25.9084  25.9829  26.0664  26.3309  26.6398
    26.8735  27.7038  28.0654  28.1004  28.5109  28.6270  29.3123  29.4014
    29.6337  29.9232  30.2225  30.6008  31.0541  31.3750  31.5248  32.0411
    32.1124  32.9581

          k = 0.1500 0.1500 0.0000 (  9159 PWs)   bands (ev):

   -73.4643 -73.4642 -73.4642 -73.4641 -39.6410 -39.6409 -39.6407 -39.6391
   -39.6390 -39.6386 -39.6382 -39.6381 -39.3866 -39.3861 -39.3861 -39.3860
    -3.9808  -2.1614  -2.1596  -1.9801   0.5299   0.5991   0.6474   1.7050
     5.8863   5.8866   6.1161   6.7548   7.0335   7.1728   7.2342   7.5139
     7.8783   8.4266   8.4830   8.7317   8.9290   9.0148   9.3253   9.3275
     9.4783  10.1252  10.3398  10.7628  11.8639  11.8976  11.9942  12.1916
    12.2971  12.3358  12.3721  12.4414  12.5004  12.5071  12.5115  12.7575
    13.8512  14.3168  14.3796  14.4374  15.4954  15.8409  15.8774  16.0798
    16.1149  16.2532  16.2713  16.5634  19.6512  19.7888  20.3469  20.3496
    20.7548  20.9216  21.0840  21.4165  21.4408  21.6874  21.9008  22.0665
    22.4363  22.6515  23.0289  23.3976  23.7833  23.8072  24.5131  24.8538
    25.2398  25.4131  25.6922  25.8817  26.0083  26.0596  26.4404  26.5746
    26.9045  27.5545  28.0092  28.0551  28.4756  28.6665  29.2783  29.4730
    29.5196  29.8972  30.2330  30.5499  30.9303  31.3285  31.3458  31.8519
    31.9896  32.9116

          k = 0.1250 0.1250 0.0000 (  9163 PWs)   bands (ev):

   -73.4643 -73.4641 -73.4641 -73.4641 -39.6410 -39.6409 -39.6407 -39.6391
   -39.6390 -39.6386 -39.6382 -39.6382 -39.3866 -39.3861 -39.3861 -39.3860
    -4.0317  -2.1212  -2.1199  -1.9888   0.5262   0.5797   0.6132   1.7849
     5.9580   5.9665   6.1339   6.7776   7.0065   7.1798   7.2597   7.6148
     7.8093   8.3203   8.4151   8.6066   8.9788   8.9959   9.2435   9.3025
     9.4055  10.1537  10.3499  10.6482  11.8320  11.8555  11.9417  12.2264
    12.3017  12.3732  12.3990  12.4484  12.4866  12.4919  12.4955  12.7506
    13.7687  14.3271  14.3658  14.4088  15.6273  15.8794  15.9707  16.1046
    16.1916  16.2811  16.3082  16.6060  19.6658  19.8262  20.2973  20.5223
    20.9101  20.9866  21.2541  21.5439  21.5571  21.6528  21.8781  21.9567
    22.4262  22.5552  22.8652  23.4384  23.7700  23.8988  24.5154  24.8359
    25.0497  25.1160  25.8279  25.8950  26.0390  26.0906  26.5201  26.5382
    26.9044  27.3757  27.9934  28.0302  28.4069  28.7601  29.2091  29.4619
    29.6078  29.8958  30.2681  30.4976  30.7986  31.1235  31.2791  31.6324
    31.8082  32.9441

          k = 0.1000 0.1000 0.0000 (  9133 PWs)   bands (ev):

   -73.4643 -73.4641 -73.4641 -73.4641 -39.6409 -39.6409 -39.6408 -39.6390
   -39.6390 -39.6383 -39.6381 -39.6380 -39.3866 -39.3860 -39.3860 -39.3859
    -4.0736  -2.0857  -2.0848  -1.9974   0.5232   0.5605   0.5819   1.8540
     6.0290   6.0401   6.1527   6.8108   6.9833   7.1112   7.3582   7.7274
     7.7581   8.2122   8.3175   8.4651   8.9797   9.0447   9.1691   9.2829
     9.3766  10.1857  10.3430  10.5371  11.8032  11.8178  11.8837  12.2575
    12.3064  12.4047  12.4213  12.4540  12.4769  12.4799  12.4839  12.7443
    13.6840  14.3383  14.3604  14.3898  15.7538  15.9212  16.0237  16.1254
    16.2150  16.2732  16.4289  16.6538  19.6910  19.8337  20.1760  20.7457
    21.0740  21.1092  21.4129  21.5323  21.6298  21.6562  21.8571  22.0030
    22.4277  22.4445  22.6890  23.4953  23.7558  23.9063  24.4921  24.7417
    24.8056  24.9844  25.9415  25.9527  26.0903  26.1185  26.4767  26.5953
    26.8711  27.1994  28.0059  28.0267  28.3178  28.9054  29.2063  29.4593
    29.6804  29.9616  30.2972  30.4463  30.6683  30.8785  31.2123  31.3930
    31.5930  33.0188

          k = 0.0750 0.0750 0.0000 (  9153 PWs)   bands (ev):

   -73.4643 -73.4641 -73.4641 -73.4641 -39.6410 -39.6410 -39.6409 -39.6392
   -39.6391 -39.6382 -39.6380 -39.6380 -39.3868 -39.3860 -39.3860 -39.3860
    -4.1064  -2.0563  -2.0558  -2.0050   0.5208   0.5433   0.5553   1.9099
     6.0941   6.1030   6.1696   6.8530   6.9665   7.0465   7.4665   7.7322
     7.8274   8.1092   8.2021   8.3162   8.9962   9.0580   9.1094   9.2975
     9.3733  10.2176  10.3236  10.4351  11.7788  11.7866  11.8285  12.2828
    12.3105  12.4295  12.4389  12.4582  12.4711  12.4721  12.4755  12.7391
    13.6058  14.3488  14.3602  14.3775  15.8689  15.9659  16.0527  16.1416
    16.2145  16.2511  16.5617  16.7011  19.7241  19.8253  20.0359  21.0013
    21.2442  21.2564  21.3629  21.5279  21.6189  21.7865  21.9681  22.0362
    22.3394  22.4235  22.5168  23.5573  23.7333  23.8416  24.3102  24.6298
    24.7649  24.8685  26.0084  26.0730  26.1356  26.1654  26.4443  26.6048
    26.8053  27.0441  28.0307  28.0405  28.2266  29.0936  29.2737  29.5038
    29.7267  30.0426  30.3179  30.3764  30.5485  30.6479  31.1258  31.1478
    31.3707  33.0954

          k = 0.0500 0.0500 0.0000 (  9127 PWs)   bands (ev):

   -73.4643 -73.4641 -73.4641 -73.4641 -39.6410 -39.6409 -39.6409 -39.6391
   -39.6390 -39.6380 -39.6380 -39.6380 -39.3867 -39.3859 -39.3859 -39.3859
    -4.1299  -2.0342  -2.0340  -2.0109   0.5192   0.5297   0.5349   1.9512
     6.1470   6.1518   6.1828   6.8975   6.9553   6.9937   7.5843   7.7364
     7.9019   8.0228   8.0832   8.1653   9.0146   9.0480   9.0665   9.3390
     9.3801  10.2450  10.2990  10.3498  11.7600  11.7633  11.7835  12.3012
    12.3136  12.4473  12.4513  12.4605  12.4684  12.4684  12.4702  12.7353
    13.5425  14.3574  14.3621  14.3700  15.9673  16.0119  16.0684  16.1533
    16.2018  16.2191  16.6746  16.7410  19.7594  19.8126  19.9124  21.2058
    21.2662  21.4080  21.4165  21.5939  21.6123  21.9011  22.0186  22.0481
    22.2874  22.3610  22.4098  23.6147  23.7055  23.7560  24.0549  24.6438
    24.7208  24.7681  26.0765  26.1430  26.1928  26.2575  26.4225  26.5792
    26.7083  26.9229  28.0555  28.0599  28.1493  29.3120  29.4010  29.5863
    29.7702  30.0634  30.2210  30.3450  30.4654  30.5118  30.9167  31.0313
    31.1633  33.1478

          k = 0.0250 0.0250 0.0000 (  9113 PWs)   bands (ev):

   -73.4643 -73.4641 -73.4641 -73.4641 -39.6409 -39.6409 -39.6408 -39.6390
   -39.6389 -39.6381 -39.6380 -39.6380 -39.3866 -39.3859 -39.3859 -39.3859
    -4.1440  -2.0205  -2.0205  -2.0146   0.5182   0.5209   0.5222   1.9764
     6.1817   6.1830   6.1910   6.9329   6.9488   6.9588   7.7089   7.7695
     7.9289   7.9761   7.9819   8.0188   9.0278   9.0368   9.0410   9.3772
     9.3886  10.2636  10.2783  10.2913  11.7481  11.7489  11.7542  12.3124
    12.3155  12.4573  12.4581  12.4604  12.4679  12.4680  12.4682  12.7330
    13.5013  14.3629  14.3640  14.3660  16.0430  16.0551  16.0761  16.1602
    16.1797  16.1835  16.7502  16.7676  19.7876  19.8024  19.8284  21.0994
    21.5051  21.5419  21.5777  21.6089  21.6303  21.9350  21.9632  21.9916
    22.3117  22.3191  22.3579  23.6567  23.6817  23.6937  23.8657  24.6634
    24.6850  24.6971  26.1264  26.1446  26.3143  26.3507  26.4103  26.5343
    26.5903  26.8440  28.0734  28.0746  28.0979  29.5431  29.5690  29.6830
    29.8017  29.9644  29.9986  30.4012  30.4404  30.4601  30.7377  30.9542
    30.9964  33.1726

          k = 0.0000 0.0000 0.0000 (  9093 PWs)   bands (ev):

   -73.4643 -73.4641 -73.4641 -73.4641 -39.6408 -39.6408 -39.6408 -39.6388
   -39.6388 -39.6380 -39.6380 -39.6380 -39.3865 -39.3859 -39.3859 -39.3859
    -4.1488  -2.0159  -2.0159  -2.0159   0.5178   0.5178   0.5178   1.9849
     6.1938   6.1938   6.1938   6.9466   6.9466   6.9466   7.8019   7.8019
     7.9183   7.9183   7.9183   7.9861   9.0325   9.0325   9.0325   9.3923
     9.3923  10.2702  10.2702  10.2702  11.7441  11.7441  11.7441  12.3162
    12.3162  12.4600  12.4600  12.4600  12.4683  12.4683  12.4683  12.7322
    13.4870  14.3648  14.3648  14.3648  16.0784  16.0784  16.0784  16.1626
    16.1626  16.1626  16.7769  16.7769  19.7986  19.7986  19.7986  21.0615
    21.6079  21.6079  21.6079  21.6669  21.6669  21.9148  21.9148  21.9148
    22.3309  22.3309  22.3309  23.6723  23.6723  23.6723  23.7948  24.6710
    24.6710  24.6710  26.1446  26.1446  26.4065  26.4065  26.4065  26.4974
    26.4974  26.8157  28.0799  28.0799  28.0799  29.7321  29.7321  29.7321
    29.8127  29.8127  29.8127  30.4396  30.4396  30.4396  30.6691  30.9238
    30.9238  33.1789

     Writing all to output data dir ./work/pwscf.save/

     init_run     :      0.99s CPU      1.20s WALL (       1 calls)
     electrons    :    195.75s CPU    202.04s WALL (       1 calls)

     Called by init_run:
     wfcinit      :      0.00s CPU      0.00s WALL (       1 calls)
     wfcinit:atom :      0.05s CPU      0.05s WALL (      81 calls)
     wfcinit:wfcr :      6.30s CPU      6.65s WALL (      81 calls)
     potinit      :      0.32s CPU      0.37s WALL (       1 calls)
     hinit0       :      0.51s CPU      0.53s WALL (       1 calls)

     Called by electrons:
     c_bands      :    195.74s CPU    202.03s WALL (       1 calls)
     v_of_rho     :      0.04s CPU      0.04s WALL (       1 calls)
     v_h          :      0.00s CPU      0.00s WALL (       1 calls)
     v_xc         :      0.04s CPU      0.04s WALL (       1 calls)
     newd         :      0.07s CPU      0.21s WALL (       1 calls)
     PAW_pot      :      0.13s CPU      0.13s WALL (       1 calls)

     Called by c_bands:
     init_us_2    :      0.04s CPU      0.04s WALL (      81 calls)
     init_us_2:cp :      0.04s CPU      0.04s WALL (      81 calls)
     cegterg      :    188.87s CPU    194.39s WALL (     181 calls)

     Called by sum_band:

     Called by *egterg:
     cdiaghg      :     40.54s CPU     40.67s WALL (    3082 calls)
     cegterg:over :     22.67s CPU     23.24s WALL (    3001 calls)
     cegterg:upda :      8.47s CPU      8.52s WALL (    3001 calls)
     cegterg:last :     21.85s CPU     21.85s WALL (    1429 calls)
     h_psi        :     81.32s CPU     86.29s WALL (    3263 calls)
     s_psi        :      5.45s CPU      5.51s WALL (    3263 calls)
     g_psi        :      0.52s CPU      0.52s WALL (    3001 calls)

     Called by h_psi:
     h_psi:calbec :      8.24s CPU      8.71s WALL (    3263 calls)
     vloc_psi     :     66.85s CPU     71.17s WALL (    3263 calls)
     add_vuspsi   :      5.75s CPU      5.93s WALL (    3263 calls)

     General routines
     calbec       :      8.23s CPU      8.70s WALL (    3263 calls)
     fft          :      0.45s CPU      0.46s WALL (      13 calls)
     ffts         :      0.13s CPU      0.13s WALL (       1 calls)
     fftw         :     62.44s CPU     66.48s WALL (  336772 calls)
     interpolate  :      0.13s CPU      0.13s WALL (       1 calls)

     Parallel routines

     PAW routines
     PAW_pot      :      0.13s CPU      0.13s WALL (       1 calls)

     PWSCF        :   3m17.94s CPU   3m36.23s WALL


   This run was terminated on:  17:27:25  20Sep2023            

=------------------------------------------------------------------------------=
   JOB DONE.
=------------------------------------------------------------------------------=
