
     Program PWSCF v.7.1 starts on 20Sep2023 at 20:31:41 

     This program is part of the open-source Quantum ESPRESSO suite
     for quantum simulation of materials; please cite
         "P. Giannozzi et al., J. Phys.:Condens. Matter 21 395502 (2009);
         "P. Giannozzi et al., J. Phys.:Condens. Matter 29 465901 (2017);
         "P. Giannozzi et al., J. Chem. Phys. 152 154105 (2020);
          URL http://www.quantum-espresso.org", 
     in publications or presentations arising from this work. More details at
     http://www.quantum-espresso.org/quote

     Parallel version (MPI & OpenMP), running on      10 processor cores
     Number of MPI processes:                10
     Threads/MPI process:                     1

     MPI processes distributed on     1 nodes
     12526 MiB available memory on the printing compute node when the environment starts

     Waiting for input...
     Reading input from standard input

     Current dimensions of program PWSCF are:
     Max number of different atomic species (ntypx) = 10
     Max number of k-points (npk) =  40000
     Max angular momentum in pseudopotentials (lmaxx) =  4

     Atomic positions and unit cell read from directory:
     ./work/pwscf.save/

     Message from routine setup:
     using ibrav=0 with symmetry is DISCOURAGED, use correct ibrav instead

     R & G space division:  proc/nbgrp/npool/nimage =      10
     Subspace diagonalization in iterative solution of the eigenvalue problem:
     a serial algorithm will be used


     Parallelization info
     --------------------
     sticks:   dense  smooth     PW     G-vecs:    dense   smooth      PW
     Min         411     236     66                19790     8572    1296
     Max         413     237     67                19791     8575    1297
     Sum        4117    2361    665               197909    85735   12965

     Using Slab Decomposition



     bravais-lattice index     =            0
     lattice parameter (alat)  =      10.1985  a.u.
     unit-cell volume          =    1060.7436 (a.u.)^3
     number of atoms/cell      =           12
     number of atomic types    =            2
     number of electrons       =       112.00
     number of Kohn-Sham states=          114
     kinetic-energy cutoff     =      71.0000  Ry
     charge density cutoff     =     496.0000  Ry
     Exchange-correlation= PBE
                           (   1   4   3   4   0   0   0)

     celldm(1)=  10.198512  celldm(2)=   0.000000  celldm(3)=   0.000000
     celldm(4)=   0.000000  celldm(5)=   0.000000  celldm(6)=   0.000000

     crystal axes: (cart. coord. in units of alat)
               a(1) = (   1.000000   0.000000   0.000000 )  
               a(2) = (   0.000000   1.000000   0.000000 )  
               a(3) = (   0.000000   0.000000   1.000000 )  

     reciprocal axes: (cart. coord. in units 2 pi/alat)
               b(1) = (  1.000000  0.000000  0.000000 )  
               b(2) = (  0.000000  1.000000  0.000000 )  
               b(3) = (  0.000000  0.000000  1.000000 )  


     PseudoPot. # 1 for Fe read from file:
     ./../../pseudo/psl100_PBE/Fe.pbe-spn-rrkjus_psl.1.0.0.UPF
     MD5 check sum: c20f6c86af3a95cce3e9925717fdaabe
     Pseudo is Ultrasoft + core correction, Zval = 16.0
     Generated using 'atomic' code by A. Dal Corso  v.7.2
     Using radial grid of 1191 points,  6 beta functions with: 
                l(1) =   0
                l(2) =   0
                l(3) =   1
                l(4) =   1
                l(5) =   2
                l(6) =   2
     Q(r) pseudized with 0 coefficients 


     PseudoPot. # 2 for S  read from file:
     ./../../pseudo/psl100_PBE/S.pbe-n-rrkjus_psl.1.0.0.UPF
     MD5 check sum: d92c366b4c2b4d2cec1f1d241e3175f0
     Pseudo is Ultrasoft + core correction, Zval =  6.0
     Generated using 'atomic' code by A. Dal Corso  v.7.2
     Using radial grid of 1151 points,  6 beta functions with: 
                l(1) =   0
                l(2) =   0
                l(3) =   1
                l(4) =   1
                l(5) =   2
                l(6) =   2
     Q(r) pseudized with 0 coefficients 


     atomic species   valence    mass     pseudopotential
        Fe            16.00    55.84500     Fe( 1.00)
        S              6.00    32.06750     S ( 1.00)

     24 Sym. Ops., with inversion, found (18 have fractional translation)


                                    s                        frac. trans.

      isym =  1     identity                                     

 cryst.   s( 1) = (     1          0          0      )
                  (     0          1          0      )
                  (     0          0          1      )

 cart.    s( 1) = (  1.0000000  0.0000000  0.0000000 )
                  (  0.0000000  1.0000000  0.0000000 )
                  (  0.0000000  0.0000000  1.0000000 )


      isym =  2     180 deg rotation - cart. axis [0,0,1]        

 cryst.   s( 2) = (    -1          0          0      )    f =( -0.5000000 )
                  (     0         -1          0      )       (  0.0000000 )
                  (     0          0          1      )       ( -0.5000000 )

 cart.    s( 2) = ( -1.0000000  0.0000000  0.0000000 )    f =( -0.5000000 )
                  (  0.0000000 -1.0000000  0.0000000 )       (  0.0000000 )
                  (  0.0000000  0.0000000  1.0000000 )       ( -0.5000000 )


      isym =  3     180 deg rotation - cart. axis [0,1,0]        

 cryst.   s( 3) = (    -1          0          0      )    f =(  0.0000000 )
                  (     0          1          0      )       ( -0.5000000 )
                  (     0          0         -1      )       ( -0.5000000 )

 cart.    s( 3) = ( -1.0000000  0.0000000  0.0000000 )    f =(  0.0000000 )
                  (  0.0000000  1.0000000  0.0000000 )       ( -0.5000000 )
                  (  0.0000000  0.0000000 -1.0000000 )       ( -0.5000000 )


      isym =  4     180 deg rotation - cart. axis [1,0,0]        

 cryst.   s( 4) = (     1          0          0      )    f =(  0.5000000 )
                  (     0         -1          0      )       ( -0.5000000 )
                  (     0          0         -1      )       (  0.0000000 )

 cart.    s( 4) = (  1.0000000  0.0000000  0.0000000 )    f =(  0.5000000 )
                  (  0.0000000 -1.0000000  0.0000000 )       ( -0.5000000 )
                  (  0.0000000  0.0000000 -1.0000000 )       (  0.0000000 )


      isym =  5     120 deg rotation - cart. axis [-1,-1,-1]     

 cryst.   s( 5) = (     0          0          1      )
                  (     1          0          0      )
                  (     0          1          0      )

 cart.    s( 5) = (  0.0000000  1.0000000  0.0000000 )
                  (  0.0000000  0.0000000  1.0000000 )
                  (  1.0000000  0.0000000  0.0000000 )


      isym =  6     120 deg rotation - cart. axis [-1,1,1]       

 cryst.   s( 6) = (     0          0         -1      )    f =(  0.0000000 )
                  (    -1          0          0      )       ( -0.5000000 )
                  (     0          1          0      )       ( -0.5000000 )

 cart.    s( 6) = (  0.0000000 -1.0000000  0.0000000 )    f =(  0.0000000 )
                  (  0.0000000  0.0000000  1.0000000 )       ( -0.5000000 )
                  ( -1.0000000  0.0000000  0.0000000 )       ( -0.5000000 )


      isym =  7     120 deg rotation - cart. axis [1,1,-1]       

 cryst.   s( 7) = (     0          0         -1      )    f =(  0.5000000 )
                  (     1          0          0      )       ( -0.5000000 )
                  (     0         -1          0      )       (  0.0000000 )

 cart.    s( 7) = (  0.0000000  1.0000000  0.0000000 )    f =(  0.5000000 )
                  (  0.0000000  0.0000000 -1.0000000 )       ( -0.5000000 )
                  ( -1.0000000  0.0000000  0.0000000 )       (  0.0000000 )


      isym =  8     120 deg rotation - cart. axis [1,-1,1]       

 cryst.   s( 8) = (     0          0          1      )    f =( -0.5000000 )
                  (    -1          0          0      )       (  0.0000000 )
                  (     0         -1          0      )       ( -0.5000000 )

 cart.    s( 8) = (  0.0000000 -1.0000000  0.0000000 )    f =( -0.5000000 )
                  (  0.0000000  0.0000000 -1.0000000 )       (  0.0000000 )
                  (  1.0000000  0.0000000  0.0000000 )       ( -0.5000000 )


      isym =  9     120 deg rotation - cart. axis [1,1,1]        

 cryst.   s( 9) = (     0          1          0      )
                  (     0          0          1      )
                  (     1          0          0      )

 cart.    s( 9) = (  0.0000000  0.0000000  1.0000000 )
                  (  1.0000000  0.0000000  0.0000000 )
                  (  0.0000000  1.0000000  0.0000000 )


      isym = 10     120 deg rotation - cart. axis [-1,1,-1]      

 cryst.   s(10) = (     0         -1          0      )    f =(  0.5000000 )
                  (     0          0         -1      )       ( -0.5000000 )
                  (     1          0          0      )       (  0.0000000 )

 cart.    s(10) = (  0.0000000  0.0000000  1.0000000 )    f =(  0.5000000 )
                  ( -1.0000000  0.0000000  0.0000000 )       ( -0.5000000 )
                  (  0.0000000 -1.0000000  0.0000000 )       (  0.0000000 )


      isym = 11     120 deg rotation - cart. axis [1,-1,-1]      

 cryst.   s(11) = (     0         -1          0      )    f =( -0.5000000 )
                  (     0          0          1      )       (  0.0000000 )
                  (    -1          0          0      )       ( -0.5000000 )

 cart.    s(11) = (  0.0000000  0.0000000 -1.0000000 )    f =( -0.5000000 )
                  ( -1.0000000  0.0000000  0.0000000 )       (  0.0000000 )
                  (  0.0000000  1.0000000  0.0000000 )       ( -0.5000000 )


      isym = 12     120 deg rotation - cart. axis [-1,-1,1]      

 cryst.   s(12) = (     0          1          0      )    f =(  0.0000000 )
                  (     0          0         -1      )       ( -0.5000000 )
                  (    -1          0          0      )       ( -0.5000000 )

 cart.    s(12) = (  0.0000000  0.0000000 -1.0000000 )    f =(  0.0000000 )
                  (  1.0000000  0.0000000  0.0000000 )       ( -0.5000000 )
                  (  0.0000000 -1.0000000  0.0000000 )       ( -0.5000000 )


      isym = 13     inversion                                    

 cryst.   s(13) = (    -1          0          0      )
                  (     0         -1          0      )
                  (     0          0         -1      )

 cart.    s(13) = ( -1.0000000  0.0000000  0.0000000 )
                  (  0.0000000 -1.0000000  0.0000000 )
                  (  0.0000000  0.0000000 -1.0000000 )


      isym = 14     inv. 180 deg rotation - cart. axis [0,0,1]   

 cryst.   s(14) = (     1          0          0      )    f =(  0.5000000 )
                  (     0          1          0      )       (  0.0000000 )
                  (     0          0         -1      )       ( -0.5000000 )

 cart.    s(14) = (  1.0000000  0.0000000  0.0000000 )    f =(  0.5000000 )
                  (  0.0000000  1.0000000  0.0000000 )       (  0.0000000 )
                  (  0.0000000  0.0000000 -1.0000000 )       ( -0.5000000 )


      isym = 15     inv. 180 deg rotation - cart. axis [0,1,0]   

 cryst.   s(15) = (     1          0          0      )    f =(  0.0000000 )
                  (     0         -1          0      )       ( -0.5000000 )
                  (     0          0          1      )       ( -0.5000000 )

 cart.    s(15) = (  1.0000000  0.0000000  0.0000000 )    f =(  0.0000000 )
                  (  0.0000000 -1.0000000  0.0000000 )       ( -0.5000000 )
                  (  0.0000000  0.0000000  1.0000000 )       ( -0.5000000 )


      isym = 16     inv. 180 deg rotation - cart. axis [1,0,0]   

 cryst.   s(16) = (    -1          0          0      )    f =( -0.5000000 )
                  (     0          1          0      )       ( -0.5000000 )
                  (     0          0          1      )       (  0.0000000 )

 cart.    s(16) = ( -1.0000000  0.0000000  0.0000000 )    f =( -0.5000000 )
                  (  0.0000000  1.0000000  0.0000000 )       ( -0.5000000 )
                  (  0.0000000  0.0000000  1.0000000 )       (  0.0000000 )


      isym = 17     inv. 120 deg rotation - cart. axis [-1,-1,-1]

 cryst.   s(17) = (     0          0         -1      )
                  (    -1          0          0      )
                  (     0         -1          0      )

 cart.    s(17) = (  0.0000000 -1.0000000  0.0000000 )
                  (  0.0000000  0.0000000 -1.0000000 )
                  ( -1.0000000  0.0000000  0.0000000 )


      isym = 18     inv. 120 deg rotation - cart. axis [-1,1,1]  

 cryst.   s(18) = (     0          0          1      )    f =(  0.0000000 )
                  (     1          0          0      )       ( -0.5000000 )
                  (     0         -1          0      )       ( -0.5000000 )

 cart.    s(18) = (  0.0000000  1.0000000  0.0000000 )    f =(  0.0000000 )
                  (  0.0000000  0.0000000 -1.0000000 )       ( -0.5000000 )
                  (  1.0000000  0.0000000  0.0000000 )       ( -0.5000000 )


      isym = 19     inv. 120 deg rotation - cart. axis [1,1,-1]  

 cryst.   s(19) = (     0          0          1      )    f =( -0.5000000 )
                  (    -1          0          0      )       ( -0.5000000 )
                  (     0          1          0      )       (  0.0000000 )

 cart.    s(19) = (  0.0000000 -1.0000000  0.0000000 )    f =( -0.5000000 )
                  (  0.0000000  0.0000000  1.0000000 )       ( -0.5000000 )
                  (  1.0000000  0.0000000  0.0000000 )       (  0.0000000 )


      isym = 20     inv. 120 deg rotation - cart. axis [1,-1,1]  

 cryst.   s(20) = (     0          0         -1      )    f =(  0.5000000 )
                  (     1          0          0      )       (  0.0000000 )
                  (     0          1          0      )       ( -0.5000000 )

 cart.    s(20) = (  0.0000000  1.0000000  0.0000000 )    f =(  0.5000000 )
                  (  0.0000000  0.0000000  1.0000000 )       (  0.0000000 )
                  ( -1.0000000  0.0000000  0.0000000 )       ( -0.5000000 )


      isym = 21     inv. 120 deg rotation - cart. axis [1,1,1]   

 cryst.   s(21) = (     0         -1          0      )
                  (     0          0         -1      )
                  (    -1          0          0      )

 cart.    s(21) = (  0.0000000  0.0000000 -1.0000000 )
                  ( -1.0000000  0.0000000  0.0000000 )
                  (  0.0000000 -1.0000000  0.0000000 )


      isym = 22     inv. 120 deg rotation - cart. axis [-1,1,-1] 

 cryst.   s(22) = (     0          1          0      )    f =( -0.5000000 )
                  (     0          0          1      )       ( -0.5000000 )
                  (    -1          0          0      )       (  0.0000000 )

 cart.    s(22) = (  0.0000000  0.0000000 -1.0000000 )    f =( -0.5000000 )
                  (  1.0000000  0.0000000  0.0000000 )       ( -0.5000000 )
                  (  0.0000000  1.0000000  0.0000000 )       (  0.0000000 )


      isym = 23     inv. 120 deg rotation - cart. axis [1,-1,-1] 

 cryst.   s(23) = (     0          1          0      )    f =(  0.5000000 )
                  (     0          0         -1      )       (  0.0000000 )
                  (     1          0          0      )       ( -0.5000000 )

 cart.    s(23) = (  0.0000000  0.0000000  1.0000000 )    f =(  0.5000000 )
                  (  1.0000000  0.0000000  0.0000000 )       (  0.0000000 )
                  (  0.0000000 -1.0000000  0.0000000 )       ( -0.5000000 )


      isym = 24     inv. 120 deg rotation - cart. axis [-1,-1,1] 

 cryst.   s(24) = (     0         -1          0      )    f =(  0.0000000 )
                  (     0          0          1      )       ( -0.5000000 )
                  (     1          0          0      )       ( -0.5000000 )

 cart.    s(24) = (  0.0000000  0.0000000  1.0000000 )    f =(  0.0000000 )
                  ( -1.0000000  0.0000000  0.0000000 )       ( -0.5000000 )
                  (  0.0000000  1.0000000  0.0000000 )       ( -0.5000000 )


   Cartesian axes

     site n.     atom                  positions (alat units)
         1           Fe  tau(   1) = (   0.0000000   0.5000000   0.5000000  )
         2           Fe  tau(   2) = (   0.5000000   0.5000000   0.0000000  )
         3           Fe  tau(   3) = (   0.5000000   0.0000000   0.5000000  )
         4           Fe  tau(   4) = (   0.0000000   0.0000000   0.0000000  )
         5           S   tau(   5) = (   0.3853801   0.1146199   0.8853801  )
         6           S   tau(   6) = (   0.1146199   0.8853801   0.3853801  )
         7           S   tau(   7) = (   0.8853801   0.3853801   0.1146199  )
         8           S   tau(   8) = (   0.6146199   0.6146199   0.6146199  )
         9           S   tau(   9) = (   0.3853801   0.3853801   0.3853801  )
        10           S   tau(  10) = (   0.1146199   0.6146199   0.8853801  )
        11           S   tau(  11) = (   0.8853801   0.1146199   0.6146199  )
        12           S   tau(  12) = (   0.6146199   0.8853801   0.1146199  )

   Crystallographic axes

     site n.     atom                  positions (cryst. coord.)
         1           Fe  tau(   1) = (  0.0000000  0.5000000  0.5000000  )
         2           Fe  tau(   2) = (  0.5000000  0.5000000  0.0000000  )
         3           Fe  tau(   3) = (  0.5000000  0.0000000  0.5000000  )
         4           Fe  tau(   4) = (  0.0000000  0.0000000  0.0000000  )
         5           S   tau(   5) = (  0.3853801  0.1146199  0.8853801  )
         6           S   tau(   6) = (  0.1146199  0.8853801  0.3853801  )
         7           S   tau(   7) = (  0.8853801  0.3853801  0.1146199  )
         8           S   tau(   8) = (  0.6146199  0.6146199  0.6146199  )
         9           S   tau(   9) = (  0.3853801  0.3853801  0.3853801  )
        10           S   tau(  10) = (  0.1146199  0.6146199  0.8853801  )
        11           S   tau(  11) = (  0.8853801  0.1146199  0.6146199  )
        12           S   tau(  12) = (  0.6146199  0.8853801  0.1146199  )

     number of k points=    81  Methfessel-Paxton smearing, width (Ry)=  0.0100
                       cart. coord. in units 2pi/alat
        k(    1) = (   0.5000000   0.5000000   0.5000000), wk =   0.0246914
        k(    2) = (   0.4750000   0.4750000   0.4750000), wk =   0.0246914
        k(    3) = (   0.4500000   0.4500000   0.4500000), wk =   0.0246914
        k(    4) = (   0.4250000   0.4250000   0.4250000), wk =   0.0246914
        k(    5) = (   0.4000000   0.4000000   0.4000000), wk =   0.0246914
        k(    6) = (   0.3750000   0.3750000   0.3750000), wk =   0.0246914
        k(    7) = (   0.3500000   0.3500000   0.3500000), wk =   0.0246914
        k(    8) = (   0.3250000   0.3250000   0.3250000), wk =   0.0246914
        k(    9) = (   0.3000000   0.3000000   0.3000000), wk =   0.0246914
        k(   10) = (   0.2750000   0.2750000   0.2750000), wk =   0.0246914
        k(   11) = (   0.2500000   0.2500000   0.2500000), wk =   0.0246914
        k(   12) = (   0.2250000   0.2250000   0.2250000), wk =   0.0246914
        k(   13) = (   0.2000000   0.2000000   0.2000000), wk =   0.0246914
        k(   14) = (   0.1750000   0.1750000   0.1750000), wk =   0.0246914
        k(   15) = (   0.1500000   0.1500000   0.1500000), wk =   0.0246914
        k(   16) = (   0.1250000   0.1250000   0.1250000), wk =   0.0246914
        k(   17) = (   0.1000000   0.1000000   0.1000000), wk =   0.0246914
        k(   18) = (   0.0750000   0.0750000   0.0750000), wk =   0.0246914
        k(   19) = (   0.0500000   0.0500000   0.0500000), wk =   0.0246914
        k(   20) = (   0.0250000   0.0250000   0.0250000), wk =   0.0246914
        k(   21) = (   0.0000000   0.0000000   0.0000000), wk =   0.0246914
        k(   22) = (   0.0250000   0.0000000   0.0000000), wk =   0.0246914
        k(   23) = (   0.0500000   0.0000000   0.0000000), wk =   0.0246914
        k(   24) = (   0.0750000   0.0000000   0.0000000), wk =   0.0246914
        k(   25) = (   0.1000000   0.0000000   0.0000000), wk =   0.0246914
        k(   26) = (   0.1250000   0.0000000   0.0000000), wk =   0.0246914
        k(   27) = (   0.1500000   0.0000000   0.0000000), wk =   0.0246914
        k(   28) = (   0.1750000   0.0000000   0.0000000), wk =   0.0246914
        k(   29) = (   0.2000000   0.0000000   0.0000000), wk =   0.0246914
        k(   30) = (   0.2250000   0.0000000   0.0000000), wk =   0.0246914
        k(   31) = (   0.2500000   0.0000000   0.0000000), wk =   0.0246914
        k(   32) = (   0.2750000   0.0000000   0.0000000), wk =   0.0246914
        k(   33) = (   0.3000000   0.0000000   0.0000000), wk =   0.0246914
        k(   34) = (   0.3250000   0.0000000   0.0000000), wk =   0.0246914
        k(   35) = (   0.3500000   0.0000000   0.0000000), wk =   0.0246914
        k(   36) = (   0.3750000   0.0000000   0.0000000), wk =   0.0246914
        k(   37) = (   0.4000000   0.0000000   0.0000000), wk =   0.0246914
        k(   38) = (   0.4250000   0.0000000   0.0000000), wk =   0.0246914
        k(   39) = (   0.4500000   0.0000000   0.0000000), wk =   0.0246914
        k(   40) = (   0.4750000   0.0000000   0.0000000), wk =   0.0246914
        k(   41) = (   0.5000000   0.0000000   0.0000000), wk =   0.0246914
        k(   42) = (   0.5000000   0.0250000   0.0000000), wk =   0.0246914
        k(   43) = (   0.5000000   0.0500000   0.0000000), wk =   0.0246914
        k(   44) = (   0.5000000   0.0750000   0.0000000), wk =   0.0246914
        k(   45) = (   0.5000000   0.1000000   0.0000000), wk =   0.0246914
        k(   46) = (   0.5000000   0.1250000   0.0000000), wk =   0.0246914
        k(   47) = (   0.5000000   0.1500000   0.0000000), wk =   0.0246914
        k(   48) = (   0.5000000   0.1750000   0.0000000), wk =   0.0246914
        k(   49) = (   0.5000000   0.2000000   0.0000000), wk =   0.0246914
        k(   50) = (   0.5000000   0.2250000   0.0000000), wk =   0.0246914
        k(   51) = (   0.5000000   0.2500000   0.0000000), wk =   0.0246914
        k(   52) = (   0.5000000   0.2750000   0.0000000), wk =   0.0246914
        k(   53) = (   0.5000000   0.3000000   0.0000000), wk =   0.0246914
        k(   54) = (   0.5000000   0.3250000   0.0000000), wk =   0.0246914
        k(   55) = (   0.5000000   0.3500000   0.0000000), wk =   0.0246914
        k(   56) = (   0.5000000   0.3750000   0.0000000), wk =   0.0246914
        k(   57) = (   0.5000000   0.4000000   0.0000000), wk =   0.0246914
        k(   58) = (   0.5000000   0.4250000   0.0000000), wk =   0.0246914
        k(   59) = (   0.5000000   0.4500000   0.0000000), wk =   0.0246914
        k(   60) = (   0.5000000   0.4750000   0.0000000), wk =   0.0246914
        k(   61) = (   0.5000000   0.5000000   0.0000000), wk =   0.0246914
        k(   62) = (   0.4750000   0.4750000   0.0000000), wk =   0.0246914
        k(   63) = (   0.4500000   0.4500000   0.0000000), wk =   0.0246914
        k(   64) = (   0.4250000   0.4250000   0.0000000), wk =   0.0246914
        k(   65) = (   0.4000000   0.4000000   0.0000000), wk =   0.0246914
        k(   66) = (   0.3750000   0.3750000   0.0000000), wk =   0.0246914
        k(   67) = (   0.3500000   0.3500000   0.0000000), wk =   0.0246914
        k(   68) = (   0.3250000   0.3250000   0.0000000), wk =   0.0246914
        k(   69) = (   0.3000000   0.3000000   0.0000000), wk =   0.0246914
        k(   70) = (   0.2750000   0.2750000   0.0000000), wk =   0.0246914
        k(   71) = (   0.2500000   0.2500000   0.0000000), wk =   0.0246914
        k(   72) = (   0.2250000   0.2250000   0.0000000), wk =   0.0246914
        k(   73) = (   0.2000000   0.2000000   0.0000000), wk =   0.0246914
        k(   74) = (   0.1750000   0.1750000   0.0000000), wk =   0.0246914
        k(   75) = (   0.1500000   0.1500000   0.0000000), wk =   0.0246914
        k(   76) = (   0.1250000   0.1250000   0.0000000), wk =   0.0246914
        k(   77) = (   0.1000000   0.1000000   0.0000000), wk =   0.0246914
        k(   78) = (   0.0750000   0.0750000   0.0000000), wk =   0.0246914
        k(   79) = (   0.0500000   0.0500000   0.0000000), wk =   0.0246914
        k(   80) = (   0.0250000   0.0250000   0.0000000), wk =   0.0246914
        k(   81) = (   0.0000000   0.0000000   0.0000000), wk =   0.0246914

                       cryst. coord.
        k(    1) = (   0.5000000   0.5000000   0.5000000), wk =   0.0246914
        k(    2) = (   0.4750000   0.4750000   0.4750000), wk =   0.0246914
        k(    3) = (   0.4500000   0.4500000   0.4500000), wk =   0.0246914
        k(    4) = (   0.4250000   0.4250000   0.4250000), wk =   0.0246914
        k(    5) = (   0.4000000   0.4000000   0.4000000), wk =   0.0246914
        k(    6) = (   0.3750000   0.3750000   0.3750000), wk =   0.0246914
        k(    7) = (   0.3500000   0.3500000   0.3500000), wk =   0.0246914
        k(    8) = (   0.3250000   0.3250000   0.3250000), wk =   0.0246914
        k(    9) = (   0.3000000   0.3000000   0.3000000), wk =   0.0246914
        k(   10) = (   0.2750000   0.2750000   0.2750000), wk =   0.0246914
        k(   11) = (   0.2500000   0.2500000   0.2500000), wk =   0.0246914
        k(   12) = (   0.2250000   0.2250000   0.2250000), wk =   0.0246914
        k(   13) = (   0.2000000   0.2000000   0.2000000), wk =   0.0246914
        k(   14) = (   0.1750000   0.1750000   0.1750000), wk =   0.0246914
        k(   15) = (   0.1500000   0.1500000   0.1500000), wk =   0.0246914
        k(   16) = (   0.1250000   0.1250000   0.1250000), wk =   0.0246914
        k(   17) = (   0.1000000   0.1000000   0.1000000), wk =   0.0246914
        k(   18) = (   0.0750000   0.0750000   0.0750000), wk =   0.0246914
        k(   19) = (   0.0500000   0.0500000   0.0500000), wk =   0.0246914
        k(   20) = (   0.0250000   0.0250000   0.0250000), wk =   0.0246914
        k(   21) = (   0.0000000   0.0000000   0.0000000), wk =   0.0246914
        k(   22) = (   0.0250000   0.0000000   0.0000000), wk =   0.0246914
        k(   23) = (   0.0500000   0.0000000   0.0000000), wk =   0.0246914
        k(   24) = (   0.0750000   0.0000000   0.0000000), wk =   0.0246914
        k(   25) = (   0.1000000   0.0000000   0.0000000), wk =   0.0246914
        k(   26) = (   0.1250000   0.0000000   0.0000000), wk =   0.0246914
        k(   27) = (   0.1500000   0.0000000   0.0000000), wk =   0.0246914
        k(   28) = (   0.1750000   0.0000000   0.0000000), wk =   0.0246914
        k(   29) = (   0.2000000   0.0000000   0.0000000), wk =   0.0246914
        k(   30) = (   0.2250000   0.0000000   0.0000000), wk =   0.0246914
        k(   31) = (   0.2500000   0.0000000   0.0000000), wk =   0.0246914
        k(   32) = (   0.2750000   0.0000000   0.0000000), wk =   0.0246914
        k(   33) = (   0.3000000   0.0000000   0.0000000), wk =   0.0246914
        k(   34) = (   0.3250000   0.0000000   0.0000000), wk =   0.0246914
        k(   35) = (   0.3500000   0.0000000   0.0000000), wk =   0.0246914
        k(   36) = (   0.3750000   0.0000000   0.0000000), wk =   0.0246914
        k(   37) = (   0.4000000   0.0000000   0.0000000), wk =   0.0246914
        k(   38) = (   0.4250000   0.0000000   0.0000000), wk =   0.0246914
        k(   39) = (   0.4500000   0.0000000   0.0000000), wk =   0.0246914
        k(   40) = (   0.4750000   0.0000000   0.0000000), wk =   0.0246914
        k(   41) = (   0.5000000   0.0000000   0.0000000), wk =   0.0246914
        k(   42) = (   0.5000000   0.0250000   0.0000000), wk =   0.0246914
        k(   43) = (   0.5000000   0.0500000   0.0000000), wk =   0.0246914
        k(   44) = (   0.5000000   0.0750000   0.0000000), wk =   0.0246914
        k(   45) = (   0.5000000   0.1000000   0.0000000), wk =   0.0246914
        k(   46) = (   0.5000000   0.1250000   0.0000000), wk =   0.0246914
        k(   47) = (   0.5000000   0.1500000   0.0000000), wk =   0.0246914
        k(   48) = (   0.5000000   0.1750000   0.0000000), wk =   0.0246914
        k(   49) = (   0.5000000   0.2000000   0.0000000), wk =   0.0246914
        k(   50) = (   0.5000000   0.2250000   0.0000000), wk =   0.0246914
        k(   51) = (   0.5000000   0.2500000   0.0000000), wk =   0.0246914
        k(   52) = (   0.5000000   0.2750000   0.0000000), wk =   0.0246914
        k(   53) = (   0.5000000   0.3000000   0.0000000), wk =   0.0246914
        k(   54) = (   0.5000000   0.3250000   0.0000000), wk =   0.0246914
        k(   55) = (   0.5000000   0.3500000   0.0000000), wk =   0.0246914
        k(   56) = (   0.5000000   0.3750000   0.0000000), wk =   0.0246914
        k(   57) = (   0.5000000   0.4000000   0.0000000), wk =   0.0246914
        k(   58) = (   0.5000000   0.4250000   0.0000000), wk =   0.0246914
        k(   59) = (   0.5000000   0.4500000   0.0000000), wk =   0.0246914
        k(   60) = (   0.5000000   0.4750000   0.0000000), wk =   0.0246914
        k(   61) = (   0.5000000   0.5000000   0.0000000), wk =   0.0246914
        k(   62) = (   0.4750000   0.4750000   0.0000000), wk =   0.0246914
        k(   63) = (   0.4500000   0.4500000   0.0000000), wk =   0.0246914
        k(   64) = (   0.4250000   0.4250000   0.0000000), wk =   0.0246914
        k(   65) = (   0.4000000   0.4000000   0.0000000), wk =   0.0246914
        k(   66) = (   0.3750000   0.3750000   0.0000000), wk =   0.0246914
        k(   67) = (   0.3500000   0.3500000   0.0000000), wk =   0.0246914
        k(   68) = (   0.3250000   0.3250000   0.0000000), wk =   0.0246914
        k(   69) = (   0.3000000   0.3000000   0.0000000), wk =   0.0246914
        k(   70) = (   0.2750000   0.2750000   0.0000000), wk =   0.0246914
        k(   71) = (   0.2500000   0.2500000   0.0000000), wk =   0.0246914
        k(   72) = (   0.2250000   0.2250000   0.0000000), wk =   0.0246914
        k(   73) = (   0.2000000   0.2000000   0.0000000), wk =   0.0246914
        k(   74) = (   0.1750000   0.1750000   0.0000000), wk =   0.0246914
        k(   75) = (   0.1500000   0.1500000   0.0000000), wk =   0.0246914
        k(   76) = (   0.1250000   0.1250000   0.0000000), wk =   0.0246914
        k(   77) = (   0.1000000   0.1000000   0.0000000), wk =   0.0246914
        k(   78) = (   0.0750000   0.0750000   0.0000000), wk =   0.0246914
        k(   79) = (   0.0500000   0.0500000   0.0000000), wk =   0.0246914
        k(   80) = (   0.0250000   0.0250000   0.0000000), wk =   0.0246914
        k(   81) = (   0.0000000   0.0000000   0.0000000), wk =   0.0246914

     Dense  grid:   197909 G-vectors     FFT dimensions: (  80,  80,  80)

     Smooth grid:    85735 G-vectors     FFT dimensions: (  60,  60,  60)

     Dynamical RAM for                 wfc:       1.86 MB

     Dynamical RAM for     wfc (w. buffer):     152.77 MB

     Dynamical RAM for           str. fact:       0.60 MB

     Dynamical RAM for           local pot:       0.00 MB

     Dynamical RAM for          nlocal pot:       3.53 MB

     Dynamical RAM for                qrad:       3.57 MB

     Dynamical RAM for          rho,v,vnew:       2.08 MB

     Dynamical RAM for           G-vectors:       1.20 MB

     Dynamical RAM for          h,s,v(r/c):       2.38 MB

     Dynamical RAM for          <psi|beta>:       0.38 MB

     Dynamical RAM for                 psi:       3.73 MB

     Dynamical RAM for                hpsi:       3.73 MB

     Dynamical RAM for                spsi:       3.73 MB

     Dynamical RAM for      wfcinit/wfcrot:       4.02 MB

     Dynamical RAM for           addusdens:      58.59 MB

     Estimated static dynamical RAM per process >     166.61 MB

     Estimated max dynamical RAM per process >     225.20 MB

     Estimated total dynamical RAM >       2.20 GB

     The potential is recalculated from file :
     ./work/pwscf.save/charge-density

     Starting wfcs are   72 randomized atomic wfcs +   42 random wfcs

     Band Structure Calculation
     Davidson diagonalization with overlap

     Computing kpt #:     1  of    81
     total cpu time spent up to now is        4.9 secs

     Computing kpt #:     2  of    81
     total cpu time spent up to now is        8.8 secs

     Computing kpt #:     3  of    81
     total cpu time spent up to now is       12.7 secs

     Computing kpt #:     4  of    81
     total cpu time spent up to now is       16.7 secs

     Computing kpt #:     5  of    81
     total cpu time spent up to now is       20.9 secs

     Computing kpt #:     6  of    81
     total cpu time spent up to now is       25.2 secs

     Computing kpt #:     7  of    81
     total cpu time spent up to now is       30.0 secs

     Computing kpt #:     8  of    81
     total cpu time spent up to now is       34.9 secs

     Computing kpt #:     9  of    81
     total cpu time spent up to now is       39.7 secs

     Computing kpt #:    10  of    81
     total cpu time spent up to now is       44.6 secs

     Computing kpt #:    11  of    81
     total cpu time spent up to now is       49.5 secs

     Computing kpt #:    12  of    81
     total cpu time spent up to now is       54.4 secs

     Computing kpt #:    13  of    81
     total cpu time spent up to now is       59.3 secs

     Computing kpt #:    14  of    81
     total cpu time spent up to now is       64.4 secs

     Computing kpt #:    15  of    81
     total cpu time spent up to now is       69.8 secs

     Computing kpt #:    16  of    81
     total cpu time spent up to now is       74.9 secs

     Computing kpt #:    17  of    81
     total cpu time spent up to now is       80.2 secs

     Computing kpt #:    18  of    81
     total cpu time spent up to now is       85.2 secs

     Computing kpt #:    19  of    81
     total cpu time spent up to now is       89.8 secs

     Computing kpt #:    20  of    81
     total cpu time spent up to now is       94.4 secs

     Computing kpt #:    21  of    81
     total cpu time spent up to now is       98.9 secs

     Computing kpt #:    22  of    81
     c_bands:  1 eigenvalues not converged
     total cpu time spent up to now is      104.7 secs

     Computing kpt #:    23  of    81
     c_bands:  1 eigenvalues not converged
     total cpu time spent up to now is      110.5 secs

     Computing kpt #:    24  of    81
     c_bands:  1 eigenvalues not converged
     total cpu time spent up to now is      116.2 secs

     Computing kpt #:    25  of    81
     c_bands:  1 eigenvalues not converged
     total cpu time spent up to now is      122.1 secs

     Computing kpt #:    26  of    81
     total cpu time spent up to now is      127.7 secs

     Computing kpt #:    27  of    81
     total cpu time spent up to now is      133.0 secs

     Computing kpt #:    28  of    81
     total cpu time spent up to now is      138.5 secs

     Computing kpt #:    29  of    81
     total cpu time spent up to now is      144.1 secs

     Computing kpt #:    30  of    81
     total cpu time spent up to now is      149.7 secs

     Computing kpt #:    31  of    81
     total cpu time spent up to now is      155.4 secs

     Computing kpt #:    32  of    81
     c_bands:  1 eigenvalues not converged
     total cpu time spent up to now is      161.2 secs

     Computing kpt #:    33  of    81
     total cpu time spent up to now is      165.9 secs

     Computing kpt #:    34  of    81
     total cpu time spent up to now is      170.6 secs

     Computing kpt #:    35  of    81
     total cpu time spent up to now is      175.3 secs

     Computing kpt #:    36  of    81
     total cpu time spent up to now is      179.7 secs

     Computing kpt #:    37  of    81
     total cpu time spent up to now is      184.4 secs

     Computing kpt #:    38  of    81
     total cpu time spent up to now is      190.3 secs

     Computing kpt #:    39  of    81
     total cpu time spent up to now is      195.7 secs

     Computing kpt #:    40  of    81
     c_bands:  1 eigenvalues not converged
     total cpu time spent up to now is      201.6 secs

     Computing kpt #:    41  of    81
     total cpu time spent up to now is      207.3 secs

     Computing kpt #:    42  of    81
     total cpu time spent up to now is      213.0 secs

     Computing kpt #:    43  of    81
     total cpu time spent up to now is      218.3 secs

     Computing kpt #:    44  of    81
     total cpu time spent up to now is      223.5 secs

     Computing kpt #:    45  of    81
     total cpu time spent up to now is      228.6 secs

     Computing kpt #:    46  of    81
     total cpu time spent up to now is      233.5 secs

     Computing kpt #:    47  of    81
     total cpu time spent up to now is      238.3 secs

     Computing kpt #:    48  of    81
     total cpu time spent up to now is      243.1 secs

     Computing kpt #:    49  of    81
     total cpu time spent up to now is      247.6 secs

     Computing kpt #:    50  of    81
     total cpu time spent up to now is      252.1 secs

     Computing kpt #:    51  of    81
     total cpu time spent up to now is      256.6 secs

     Computing kpt #:    52  of    81
     total cpu time spent up to now is      260.8 secs

     Computing kpt #:    53  of    81
     total cpu time spent up to now is      265.0 secs

     Computing kpt #:    54  of    81
     total cpu time spent up to now is      269.2 secs

     Computing kpt #:    55  of    81
     total cpu time spent up to now is      273.4 secs

     Computing kpt #:    56  of    81
     total cpu time spent up to now is      277.5 secs

     Computing kpt #:    57  of    81
     total cpu time spent up to now is      281.8 secs

     Computing kpt #:    58  of    81
     total cpu time spent up to now is      286.1 secs

     Computing kpt #:    59  of    81
     total cpu time spent up to now is      290.7 secs

     Computing kpt #:    60  of    81
     total cpu time spent up to now is      295.5 secs

     Computing kpt #:    61  of    81
     total cpu time spent up to now is      299.7 secs

     Computing kpt #:    62  of    81
     total cpu time spent up to now is      304.5 secs

     Computing kpt #:    63  of    81
     total cpu time spent up to now is      309.2 secs

     Computing kpt #:    64  of    81
     total cpu time spent up to now is      313.9 secs

     Computing kpt #:    65  of    81
     total cpu time spent up to now is      318.8 secs

     Computing kpt #:    66  of    81
     total cpu time spent up to now is      323.8 secs

     Computing kpt #:    67  of    81
     total cpu time spent up to now is      328.6 secs

     Computing kpt #:    68  of    81
     total cpu time spent up to now is      333.3 secs

     Computing kpt #:    69  of    81
     total cpu time spent up to now is      337.6 secs

     Computing kpt #:    70  of    81
     total cpu time spent up to now is      342.3 secs

     Computing kpt #:    71  of    81
     total cpu time spent up to now is      346.6 secs

     Computing kpt #:    72  of    81
     total cpu time spent up to now is      351.4 secs

     Computing kpt #:    73  of    81
     total cpu time spent up to now is      356.7 secs

     Computing kpt #:    74  of    81
     total cpu time spent up to now is      361.4 secs

     Computing kpt #:    75  of    81
     total cpu time spent up to now is      366.0 secs

     Computing kpt #:    76  of    81
     total cpu time spent up to now is      370.7 secs

     Computing kpt #:    77  of    81
     total cpu time spent up to now is      375.5 secs

     Computing kpt #:    78  of    81
     total cpu time spent up to now is      380.6 secs

     Computing kpt #:    79  of    81
     c_bands:  1 eigenvalues not converged
     total cpu time spent up to now is      386.3 secs

     Computing kpt #:    80  of    81
     c_bands:  1 eigenvalues not converged
     total cpu time spent up to now is      392.1 secs

     Computing kpt #:    81  of    81
     total cpu time spent up to now is      397.2 secs

     ethr =  1.00E-13,  avg # of iterations = 78.5

     total cpu time spent up to now is      397.2 secs

     End of band structure calculation

          k = 0.5000 0.5000 0.5000 ( 10768 PWs)   bands (ev):

   -73.3613 -73.3613 -73.3613 -73.3613 -39.5437 -39.5437 -39.5437 -39.5437
   -39.5411 -39.5411 -39.5411 -39.5411 -39.2941 -39.2941 -39.2941 -39.2941
    -2.3655  -2.3655  -2.3655  -2.3655   0.2276   0.2276   0.2276   0.2276
     6.3748   6.3748   6.3748   6.3748   7.4685   7.4685   7.4685   7.4685
     8.3373   8.3373   8.3373   8.3373  10.5620  10.5620  10.5620  10.5620
    10.8778  10.8778  10.8778  10.8778  11.6956  11.6956  11.6956  11.6956
    11.8564  11.8564  11.8564  11.8564  12.5190  12.5190  12.5190  12.5190
    14.3408  14.3408  14.3408  14.3408  15.2988  15.2988  15.2988  15.2988
    16.2133  16.2133  16.2133  16.2133  19.9679  19.9679  19.9679  19.9679
    20.9359  20.9359  20.9359  20.9359  21.4454  21.4454  21.4454  21.4454
    21.8827  21.8827  21.8827  21.8827  23.0506  23.0506  23.0506  23.0506
    25.4449  25.4449  25.4449  25.4449  27.8214  27.8214  27.8214  27.8214
    28.7220  28.7220  28.7220  28.7220  29.6633  29.6633  29.6633  29.6633
    29.7839  29.7839  29.7839  29.7839  32.6775  32.6775  32.6775  32.6775
    33.0695  33.0695

          k = 0.4750 0.4750 0.4750 ( 10678 PWs)   bands (ev):

   -73.3612 -73.3612 -73.3612 -73.3612 -39.5436 -39.5435 -39.5435 -39.5435
   -39.5409 -39.5409 -39.5408 -39.5408 -39.2939 -39.2939 -39.2939 -39.2938
    -2.3855  -2.3648  -2.3642  -2.3642   0.2324   0.2324   0.2376   0.2466
     6.3232   6.3682   6.3682   6.3753   7.4430   7.4430   7.4696   7.5339
     8.3354   8.3354   8.3654   8.3654  10.5289  10.5289  10.5521  10.5521
    10.8162  10.8579  10.8579  10.8642  11.7076  11.7161  11.7161  11.7449
    11.8666  11.8666  11.8807  11.8807  12.5175  12.5249  12.5249  12.5255
    14.3395  14.3527  14.3530  14.3530  15.2915  15.2915  15.3038  15.3038
    16.1948  16.2001  16.2123  16.2123  19.8910  19.9260  19.9260  19.9939
    20.9142  20.9593  20.9593  21.0230  21.3979  21.3979  21.4292  21.4292
    21.8965  21.8965  21.9334  21.9334  23.0454  23.0797  23.0821  23.0821
    25.4454  25.4724  25.5008  25.5008  27.6042  27.7495  27.7495  27.8202
    28.6915  28.7336  28.7336  28.9377  29.5006  29.5006  29.5541  29.5541
    29.8935  29.8935  29.9320  29.9320  32.5390  32.6170  32.6170  32.6325
    33.0470  33.1915

          k = 0.4500 0.4500 0.4500 ( 10711 PWs)   bands (ev):

   -73.3612 -73.3612 -73.3612 -73.3612 -39.5436 -39.5436 -39.5436 -39.5436
   -39.5410 -39.5410 -39.5409 -39.5409 -39.2940 -39.2940 -39.2939 -39.2939
    -2.4430  -2.3625  -2.3604  -2.3604   0.2466   0.2466   0.2672   0.3007
     6.1978   6.3477   6.3477   6.3773   7.3794   7.3794   7.4725   7.7005
     8.3297   8.3297   8.4355   8.4355  10.4375  10.4375  10.5185  10.5185
    10.6659  10.8166  10.8166  10.8258  11.7405  11.7600  11.7600  11.8576
    11.8968  11.8968  11.9482  11.9482  12.5126  12.5417  12.5417  12.5450
    14.3352  14.3872  14.3884  14.3884  15.2688  15.2688  15.3182  15.3182
    16.1404  16.1613  16.2094  16.2094  19.7263  19.8218  19.8218  20.0706
    20.8523  21.0019  21.0019  21.2129  21.2808  21.2808  21.4093  21.4093
    21.9286  21.9286  22.0571  22.0571  23.0305  23.1677  23.1754  23.1754
    25.4471  25.5495  25.6544  25.6544  27.2043  27.5790  27.5790  27.8151
    28.6049  28.6962  28.6962  29.2565  29.2565  29.3318  29.4939  29.4939
    29.9911  29.9911  30.1343  30.1343  32.3033  32.5022  32.5398  32.5398
    32.9888  33.3907

          k = 0.4250 0.4250 0.4250 ( 10729 PWs)   bands (ev):

   -73.3613 -73.3613 -73.3613 -73.3612 -39.5437 -39.5436 -39.5435 -39.5435
   -39.5412 -39.5412 -39.5410 -39.5410 -39.2940 -39.2940 -39.2940 -39.2940
    -2.5317  -2.3584  -2.3540  -2.3540   0.2694   0.2694   0.3158   0.3821
     6.0448   6.3121   6.3121   6.3819   7.3028   7.3028   7.4759   7.9221
     8.3206   8.3206   8.5195   8.5195  10.3094  10.3094  10.4566  10.4566
    10.4753  10.7682  10.7827  10.7827  11.7883  11.8058  11.8058  11.9438
    11.9438  11.9846  12.0434  12.0434  12.5048  12.5682  12.5682  12.5772
    14.3284  14.4427  14.4456  14.4456  15.2302  15.2302  15.3418  15.3418
    16.0542  16.1002  16.2052  16.2052  19.5558  19.6939  19.6939  20.1950
    20.7592  21.0085  21.0085  21.1436  21.1436  21.4104  21.4233  21.4233
    21.9711  21.9711  22.2167  22.2167  23.0066  23.3158  23.3245  23.3245
    25.4500  25.6618  25.8663  25.8663  26.7964  27.3803  27.3803  27.8006
    28.4779  28.5503  28.5503  28.9969  28.9969  29.5163  29.5163  29.7242
    30.0525  30.0525  30.3432  30.3432  32.0621  32.3224  32.5039  32.5039
    32.8949  33.5600

          k = 0.4000 0.4000 0.4000 ( 10699 PWs)   bands (ev):

   -73.3613 -73.3612 -73.3612 -73.3612 -39.5436 -39.5435 -39.5434 -39.5434
   -39.5411 -39.5411 -39.5410 -39.5410 -39.2940 -39.2939 -39.2939 -39.2939
    -2.6436  -2.3521  -2.3447  -2.3447   0.2997   0.2997   0.3824   0.4803
     5.8930   6.2611   6.2611   6.3909   7.2320   7.2320   7.4780   8.1697
     8.3084   8.3084   8.5919   8.5919  10.1686  10.1686  10.2713  10.3721
    10.3721  10.6967  10.7664  10.7664  11.8446  11.8500  11.8500  11.9980
    11.9980  12.0984  12.1464  12.1464  12.4951  12.6011  12.6011  12.6204
    14.3202  14.5158  14.5218  14.5218  15.1753  15.1753  15.3744  15.3744
    15.9427  16.0231  16.2009  16.2009  19.4167  19.5717  19.5717  20.3616
    20.6461  20.9177  20.9177  21.0687  21.0687  21.4668  21.4668  21.5652
    22.0290  22.0290  22.3943  22.3943  22.9706  23.5170  23.5170  23.5184
    25.4542  25.7898  26.0715  26.0715  26.4353  27.2108  27.2108  27.7611
    28.3416  28.3416  28.3420  28.7522  28.7522  29.5224  29.5224  30.0446
    30.1137  30.1137  30.5642  30.5642  31.8240  32.1589  32.4954  32.4954
    32.7537  33.6798

          k = 0.3750 0.3750 0.3750 ( 10705 PWs)   bands (ev):

   -73.3613 -73.3612 -73.3612 -73.3612 -39.5436 -39.5434 -39.5434 -39.5432
   -39.5413 -39.5413 -39.5410 -39.5410 -39.2940 -39.2939 -39.2939 -39.2939
    -2.7709  -2.3431  -2.3325  -2.3325   0.3357   0.3357   0.4655   0.5844
     5.7577   6.1964   6.1964   6.4064   7.1768   7.1768   7.4765   8.2926
     8.2926   8.4266   8.6339   8.6339  10.0333  10.0333  10.0681  10.2800
    10.2800  10.6153  10.7637  10.7637  11.8954  11.8954  11.9041  12.0506
    12.0506  12.1841  12.2432  12.2432  12.4876  12.6357  12.6357  12.6703
    14.3105  14.5997  14.6130  14.6130  15.1041  15.1041  15.4157  15.4157
    15.8140  15.9413  16.1986  16.1986  19.3223  19.4723  19.4723  20.5103
    20.5767  20.7828  20.7828  21.0452  21.0452  21.5090  21.5090  21.6603
    22.1099  22.1099  22.5832  22.5832  22.9151  23.7322  23.7322  23.7539
    25.4594  25.9139  26.1557  26.1820  26.1820  27.1237  27.1237  27.6688
    28.1115  28.1115  28.2451  28.5621  28.5621  29.4697  29.4697  30.1867
    30.1867  30.2238  30.8017  30.8017  31.6030  32.0562  32.4816  32.4816
    32.5802  33.7115

          k = 0.3500 0.3500 0.3500 ( 10708 PWs)   bands (ev):

   -73.3613 -73.3612 -73.3612 -73.3612 -39.5436 -39.5433 -39.5433 -39.5431
   -39.5415 -39.5415 -39.5411 -39.5411 -39.2940 -39.2940 -39.2939 -39.2939
    -2.9070  -2.3311  -2.3171  -2.3171   0.3755   0.3755   0.5632   0.6844
     5.6482   6.1234   6.1234   6.4314   7.1395   7.1395   7.4687   8.2709
     8.2709   8.6374   8.6374   8.6811   9.8751   9.9102   9.9102  10.1949
    10.1949  10.5255  10.7692  10.7692  11.9431  11.9431  11.9633  12.0974
    12.0974  12.2302  12.3271  12.3271  12.4928  12.6659  12.6659  12.7205
    14.2999  14.6843  14.7144  14.7144  15.0188  15.0188  15.4656  15.4656
    15.6751  15.8725  16.2012  16.2012  19.2742  19.4044  19.4044  20.3894
    20.6706  20.6706  20.8030  21.0396  21.0396  21.5315  21.5315  21.7004
    22.2142  22.2142  22.7818  22.7818  22.8331  23.9433  23.9433  23.9821
    25.4617  25.9647  26.0424  26.1590  26.1590  27.1107  27.1107  27.5174
    27.8740  27.8740  28.2159  28.4691  28.4691  29.3965  29.3965  30.1994
    30.2539  30.2539  31.0458  31.0458  31.4304  31.9675  32.4362  32.4362
    32.4626  33.6069

          k = 0.3250 0.3250 0.3250 ( 10696 PWs)   bands (ev):

   -73.3613 -73.3612 -73.3612 -73.3612 -39.5436 -39.5432 -39.5432 -39.5429
   -39.5415 -39.5415 -39.5410 -39.5410 -39.2940 -39.2939 -39.2939 -39.2939
    -3.0463  -2.3156  -2.2986  -2.2986   0.4169   0.4169   0.6729   0.7723
     5.5698   6.0492   6.0492   6.4686   7.1175   7.1175   7.4525   8.2374
     8.2374   8.6101   8.6101   8.9213   9.7009   9.7958   9.7958  10.1258
    10.1258  10.4276  10.7786  10.7786  11.9926  11.9926  12.0203  12.1373
    12.1373  12.2308  12.3952  12.3952  12.5192  12.6863  12.6863  12.7653
    14.2878  14.7571  14.8147  14.8147  14.9314  14.9314  15.5234  15.5234
    15.5307  15.8386  16.2113  16.2113  19.2674  19.3704  19.3704  20.2649
    20.5991  20.5991  21.0525  21.0525  21.0570  21.5316  21.5316  21.6987
    22.3329  22.3329  22.7265  22.9894  22.9894  24.1207  24.1207  24.1601
    25.4435  25.8897  26.0701  26.0701  26.1670  27.0856  27.0856  27.3457
    27.6393  27.6393  28.2372  28.4635  28.4635  29.3646  29.3646  29.9841
    30.3056  30.3056  31.2712  31.2712  31.2837  31.8005  32.3608  32.3608
    32.5108  33.3993

          k = 0.3000 0.3000 0.3000 ( 10681 PWs)   bands (ev):

   -73.3613 -73.3612 -73.3612 -73.3612 -39.5436 -39.5431 -39.5431 -39.5427
   -39.5416 -39.5416 -39.5410 -39.5410 -39.2940 -39.2939 -39.2938 -39.2938
    -3.1850  -2.2965  -2.2768  -2.2768   0.4576   0.4576   0.7876   0.8462
     5.5251   5.9813   5.9813   6.5214   7.1066   7.1066   7.4259   8.1820
     8.1820   8.5744   8.5744   9.1262   9.5613   9.6837   9.6837  10.0712
    10.0712  10.3214  10.7880  10.7880  12.0423  12.0423  12.0744  12.1709
    12.1709  12.1976  12.4467  12.4467  12.5591  12.6925  12.6925  12.8016
    14.2726  14.7969  14.7969  14.8098  14.9642  14.9642  15.3857  15.5879
    15.5879  15.8553  16.2305  16.2305  19.2911  19.3696  19.3696  20.1514
    20.5752  20.5752  21.0852  21.0852  21.3196  21.5127  21.5127  21.6702
    22.4523  22.4523  22.6100  23.2029  23.2029  24.2428  24.2428  24.2700
    25.3681  25.8677  25.9829  25.9829  26.3586  27.0142  27.0142  27.1957
    27.4265  27.4265  28.2821  28.4701  28.4701  29.4094  29.4094  29.6546
    30.3425  30.3425  31.0829  31.4444  31.4444  31.6204  32.2945  32.2945
    32.6559  33.1828

          k = 0.2750 0.2750 0.2750 ( 10714 PWs)   bands (ev):

   -73.3613 -73.3612 -73.3612 -73.3612 -39.5437 -39.5431 -39.5431 -39.5425
   -39.5418 -39.5418 -39.5411 -39.5411 -39.2942 -39.2939 -39.2939 -39.2939
    -3.3196  -2.2735  -2.2520  -2.2520   0.4951   0.4951   0.8654   0.9417
     5.5140   5.9260   5.9260   6.5929   7.1027   7.1027   7.3880   8.0978
     8.0978   8.5537   8.5537   9.2287   9.5144   9.5716   9.5716  10.0208
    10.0208  10.2089  10.7930  10.7930  12.0900  12.0900  12.1237  12.1508
    12.1985  12.1985  12.4817  12.4817  12.5990  12.6833  12.6833  12.8293
    14.2517  14.7011  14.7011  14.8439  15.0853  15.0853  15.2480  15.6565
    15.6565  15.9203  16.2582  16.2582  19.3293  19.4009  19.4009  20.0625
    20.5990  20.5990  21.1347  21.1347  21.4798  21.4798  21.5564  21.6460
    22.5067  22.5569  22.5569  23.4137  23.4137  24.3149  24.3149  24.3240
    25.2115  25.8747  25.9155  25.9155  26.6102  26.9014  26.9014  27.0896
    27.2623  27.2623  28.3315  28.4630  28.4630  29.2794  29.4796  29.4796
    30.3567  30.3567  30.8069  31.4598  31.5577  31.5577  32.2782  32.2782
    32.7608  33.0738

          k = 0.2500 0.2500 0.2500 ( 10723 PWs)   bands (ev):

   -73.3614 -73.3612 -73.3612 -73.3612 -39.5437 -39.5431 -39.5431 -39.5423
   -39.5419 -39.5419 -39.5412 -39.5412 -39.2942 -39.2939 -39.2939 -39.2939
    -3.4479  -2.2469  -2.2244  -2.2244   0.5276   0.5276   0.8891   1.0721
     5.5336   5.8883   5.8883   6.6857   7.1022   7.1022   7.3392   7.9909
     7.9909   8.5564   8.5564   9.1814   9.4612   9.4612   9.5869   9.9628
     9.9628  10.1026  10.7890  10.7890  12.0954  12.1336  12.1336  12.1781
    12.2200  12.2200  12.5012  12.5012  12.6301  12.6617  12.6617  12.8495
    14.2223  14.6112  14.6112  14.8609  15.1366  15.2202  15.2202  15.7272
    15.7272  16.0156  16.2920  16.2920  19.3608  19.4643  19.4643  20.0193
    20.6654  20.6654  21.1878  21.1878  21.4436  21.4436  21.5678  21.8127
    22.4428  22.6324  22.6324  23.6047  23.6047  24.3417  24.3767  24.3767
    24.9888  25.8556  25.8556  25.9011  26.7499  26.7499  26.8275  27.0582
    27.1576  27.1576  28.3706  28.4826  28.4826  28.9191  29.4911  29.4911
    30.3121  30.3121  30.5061  31.2768  31.6675  31.6675  32.2868  32.2868
    32.6844  33.0912

          k = 0.2250 0.2250 0.2250 ( 10729 PWs)   bands (ev):

   -73.3614 -73.3612 -73.3612 -73.3612 -39.5438 -39.5432 -39.5432 -39.5422
   -39.5420 -39.5420 -39.5412 -39.5412 -39.2942 -39.2940 -39.2940 -39.2939
    -3.5680  -2.2171  -2.1946  -2.1946   0.5534   0.5534   0.8850   1.2097
     5.5793   5.8713   5.8713   6.8010   7.1021   7.1021   7.2816   7.8752
     7.8752   8.5784   8.5784   9.0963   9.3552   9.3552   9.6178   9.8896
     9.8896  10.0456  10.7727  10.7727  12.0517  12.1695  12.1695  12.2271
    12.2343  12.2343  12.5066  12.5066  12.6349  12.6349  12.6479  12.8627
    14.1826  14.5378  14.5378  14.8333  15.0970  15.3648  15.3648  15.7985
    15.7985  16.1186  16.3281  16.3281  19.3702  19.5604  19.5604  20.0414
    20.7645  20.7645  21.2067  21.2067  21.4372  21.4372  21.5414  21.9572
    22.4412  22.6704  22.6704  23.7547  23.7547  24.3368  24.4756  24.4756
    24.7408  25.7936  25.7936  25.9364  26.5821  26.5821  26.8379  27.0830
    27.0830  27.1656  28.3690  28.5581  28.5581  28.6692  29.4197  29.4197
    30.1871  30.1871  30.2304  31.0631  31.7691  31.7691  32.2929  32.2929
    32.5465  32.9998

          k = 0.2000 0.2000 0.2000 ( 10723 PWs)   bands (ev):

   -73.3614 -73.3612 -73.3612 -73.3612 -39.5438 -39.5432 -39.5432 -39.5420
   -39.5420 -39.5418 -39.5412 -39.5412 -39.2943 -39.2939 -39.2939 -39.2938
    -3.6784  -2.1846  -2.1631  -2.1631   0.5716   0.5716   0.8603   1.3477
     5.6455   5.8764   5.8764   6.9371   7.1003   7.1003   7.2201   7.7639
     7.7639   8.6109   8.6109   9.0126   9.2572   9.2572   9.5322   9.7986
     9.7986  10.0716  10.7422  10.7422  12.0184  12.1842  12.1842  12.2473
    12.2473  12.2767  12.5031  12.5031  12.6115  12.6115  12.6517  12.8689
    14.1318  14.4845  14.4845  14.7527  15.1481  15.5154  15.5154  15.8710
    15.8710  16.2105  16.3627  16.3627  19.3661  19.6885  19.6885  20.1277
    20.8733  20.8733  21.1706  21.1706  21.4865  21.4865  21.5409  22.0134
    22.4815  22.6757  22.6757  23.8565  23.8565  24.3195  24.5135  24.6206
    24.6206  25.7384  25.7384  25.9693  26.4213  26.4213  26.7020  27.0139
    27.0139  27.2414  28.2983  28.6233  28.6648  28.6648  29.2983  29.2983
    30.0214  30.0214  30.0262  30.8391  31.7465  31.7465  32.3067  32.3067
    32.4031  33.0316

          k = 0.1750 0.1750 0.1750 ( 10729 PWs)   bands (ev):

   -73.3615 -73.3612 -73.3612 -73.3612 -39.5438 -39.5433 -39.5433 -39.5420
   -39.5420 -39.5418 -39.5413 -39.5413 -39.2943 -39.2940 -39.2940 -39.2938
    -3.7779  -2.1505  -2.1310  -2.1310   0.5820   0.5820   0.8204   1.4820
     5.7267   5.9029   5.9029   7.0748   7.0946   7.0946   7.1752   7.6674
     7.6674   8.6413   8.6413   8.9268   9.1734   9.1734   9.3853   9.6926
     9.6926  10.1315  10.6980  10.6980  11.9938  12.1588  12.1588  12.2727
    12.2727  12.3266  12.5006  12.5006  12.5950  12.5950  12.6431  12.8682
    14.0690  14.4511  14.4511  14.6610  15.2511  15.6636  15.6636  15.9483
    15.9483  16.2794  16.3942  16.3942  19.3720  19.8445  19.8445  20.2622
    20.9062  20.9062  21.1845  21.1845  21.5570  21.5570  21.5748  22.0203
    22.4808  22.6649  22.6649  23.9158  23.9158  24.2757  24.3713  24.7721
    24.7721  25.7145  25.7145  25.9805  26.2809  26.2809  26.4453  26.9519
    26.9519  27.2708  28.2178  28.6836  28.7077  28.7077  29.2011  29.2011
    29.8826  29.8826  29.9328  30.6286  31.6180  31.6180  32.2239  32.2239
    32.2525  33.1413

          k = 0.1500 0.1500 0.1500 ( 10729 PWs)   bands (ev):

   -73.3615 -73.3612 -73.3612 -73.3612 -39.5438 -39.5434 -39.5434 -39.5420
   -39.5420 -39.5417 -39.5413 -39.5413 -39.2943 -39.2939 -39.2939 -39.2938
    -3.8657  -2.1159  -2.0992  -2.0992   0.5853   0.5853   0.7710   1.6089
     5.8180   5.9481   5.9481   7.0730   7.0830   7.0830   7.2870   7.5948
     7.5948   8.6480   8.6480   8.8194   9.1166   9.1166   9.2420   9.5804
     9.5804  10.1882  10.6418  10.6418  11.9724  12.1038  12.1038  12.3035
    12.3035  12.3759  12.5050  12.5050  12.5833  12.5833  12.6257  12.8625
    13.9914  14.4345  14.4345  14.5814  15.3829  15.7950  15.7950  16.0365
    16.0365  16.3213  16.4253  16.4253  19.4035  20.0138  20.0138  20.4323
    20.8210  20.8210  21.3158  21.3158  21.6234  21.6234  21.6425  22.0068
    22.3912  22.6535  22.6535  23.9305  23.9305  24.1624  24.3791  24.8816
    24.8816  25.7473  25.7473  25.8618  26.1695  26.1695  26.2107  26.9058
    26.9058  27.3001  28.1151  28.6076  28.6076  28.7799  29.1682  29.1682
    29.8420  29.8420  29.9425  30.4550  31.4451  31.4451  32.0400  32.0400
    32.0796  33.1927

          k = 0.1250 0.1250 0.1250 ( 10738 PWs)   bands (ev):

   -73.3615 -73.3612 -73.3612 -73.3612 -39.5438 -39.5435 -39.5435 -39.5420
   -39.5420 -39.5415 -39.5413 -39.5413 -39.2944 -39.2939 -39.2939 -39.2939
    -3.9411  -2.0822  -2.0690  -2.0690   0.5829   0.5829   0.7178   1.7246
     5.9146   6.0070   6.0070   7.0238   7.0644   7.0644   7.4596   7.5535
     7.5535   8.6056   8.6056   8.6692   9.1001   9.1001   9.1431   9.4764
     9.4764  10.2320  10.5758  10.5758  11.9484  12.0357  12.0357  12.3336
    12.3336  12.4227  12.5148  12.5148  12.5747  12.5747  12.6046  12.8543
    13.8974  14.4301  14.4301  14.5227  15.5304  15.8959  15.8959  16.1324
    16.1324  16.3389  16.4666  16.4666  19.4627  20.1500  20.1500  20.6321
    20.7466  20.7466  21.4715  21.4715  21.6881  21.6881  21.7310  21.9669
    22.2500  22.6438  22.6438  23.8967  23.8967  24.0502  24.4441  24.9291
    24.9291  25.4958  25.8323  25.8323  26.0971  26.0971  26.1794  26.8756
    26.8756  27.3049  28.0156  28.4442  28.4442  28.9017  29.1356  29.1356
    29.9129  29.9129  29.9796  30.3536  31.2403  31.2403  31.8164  31.8164
    31.8695  33.1840

          k = 0.1000 0.1000 0.1000 ( 10749 PWs)   bands (ev):

   -73.3615 -73.3612 -73.3612 -73.3612 -39.5439 -39.5436 -39.5436 -39.5420
   -39.5420 -39.5414 -39.5413 -39.5413 -39.2944 -39.2940 -39.2940 -39.2939
    -4.0034  -2.0512  -2.0417  -2.0417   0.5767   0.5767   0.6660   1.8254
     6.0112   6.0725   6.0725   6.9847   7.0404   7.0404   7.5482   7.5482
     7.6291   8.4848   8.5081   8.5081   9.0931   9.1126   9.1126   9.4010
     9.4010  10.2625  10.5032  10.5032  11.9189  11.9674  11.9674  12.3607
    12.3607  12.4647  12.5261  12.5261  12.5686  12.5686  12.5858  12.8460
    13.7910  14.4333  14.4333  14.4857  15.6825  15.9689  15.9689  16.2078
    16.2078  16.3378  16.5372  16.5372  19.5429  20.1595  20.1595  20.8106
    20.8106  20.8569  21.5798  21.5798  21.7443  21.7870  21.7870  21.9319
    22.1569  22.6222  22.6222  23.8268  23.8268  23.9433  24.5210  24.9227
    24.9227  25.0687  25.9327  25.9327  26.0752  26.0752  26.2118  26.8446
    26.8446  27.2424  27.9771  28.2964  28.2964  29.0527  29.1240  29.1240
    29.9644  30.0271  30.0271  30.3557  31.0033  31.0033  31.5894  31.5894
    31.6189  33.1713

          k = 0.0750 0.0750 0.0750 ( 10761 PWs)   bands (ev):

   -73.3616 -73.3612 -73.3612 -73.3612 -39.5439 -39.5437 -39.5437 -39.5420
   -39.5420 -39.5414 -39.5413 -39.5413 -39.2945 -39.2940 -39.2940 -39.2939
    -4.0523  -2.0245  -2.0187  -2.0187   0.5688   0.5688   0.6202   1.9078
     6.1003   6.1361   6.1361   6.9629   7.0152   7.0152   7.5801   7.5801
     7.7795   8.2951   8.3716   8.3716   9.0746   9.1187   9.1187   9.3766
     9.3766  10.2811  10.4292  10.4292  11.8856  11.9075  11.9075  12.3831
    12.3831  12.4993  12.5356  12.5356  12.5653  12.5653  12.5732  12.8387
    13.6836  14.4399  14.4399  14.4661  15.8285  16.0239  16.0239  16.2420
    16.2420  16.3230  16.6386  16.6386  19.6338  20.0576  20.0576  21.0117
    21.0117  21.0976  21.5657  21.6207  21.6207  21.9220  21.9220  22.0076
    22.1480  22.5685  22.5685  23.7510  23.7510  23.8425  24.5356  24.7060
    24.8749  24.8749  26.0140  26.0140  26.1128  26.1128  26.2604  26.7895
    26.7895  27.1216  28.0010  28.1919  28.1919  29.1833  29.1833  29.2352
    29.9182  30.1293  30.1293  30.4125  30.7488  30.7488  31.3387  31.3694
    31.3694  33.1727

          k = 0.0500 0.0500 0.0500 ( 10767 PWs)   bands (ev):

   -73.3616 -73.3612 -73.3612 -73.3612 -39.5439 -39.5438 -39.5438 -39.5420
   -39.5420 -39.5414 -39.5413 -39.5413 -39.2945 -39.2940 -39.2940 -39.2939
    -4.0874  -2.0040  -2.0012  -2.0012   0.5613   0.5613   0.5846   1.9689
     6.1726   6.1889   6.1889   6.9600   6.9940   6.9940   7.6479   7.6479
     7.8967   8.1282   8.2153   8.2153   9.0731   9.1044   9.1044   9.3990
     9.3990  10.2901  10.3615  10.3615  11.8542  11.8617  11.8617  12.3998
    12.3998  12.5247  12.5414  12.5414  12.5651  12.5651  12.5675  12.8333
    13.5907  14.4468  14.4468  14.4574  15.9580  16.0663  16.0663  16.2475
    16.2475  16.2968  16.7421  16.7421  19.7229  19.9383  19.9383  21.2637
    21.2637  21.3345  21.3678  21.6337  21.6337  22.0245  22.0258  22.0258
    22.2332  22.4794  22.4794  23.6991  23.6991  23.7561  24.2426  24.6804
    24.8042  24.8042  26.0692  26.0692  26.1974  26.1974  26.3139  26.7007
    26.7007  26.9909  28.0438  28.1292  28.1292  29.3287  29.3287  29.4429
    29.8813  30.1735  30.1735  30.4672  30.5287  30.5287  31.0533  31.1603
    31.1603  33.1797

          k = 0.0250 0.0250 0.0250 ( 10797 PWs)   bands (ev):

   -73.3616 -73.3612 -73.3612 -73.3612 -39.5439 -39.5439 -39.5439 -39.5421
   -39.5421 -39.5414 -39.5414 -39.5414 -39.2947 -39.2940 -39.2940 -39.2940
    -4.1086  -1.9910  -1.9903  -1.9903   0.5560   0.5560   0.5619   2.0066
     6.2195   6.2235   6.2235   6.9693   6.9802   6.9802   7.7460   7.7460
     7.9638   8.0172   8.0583   8.0583   9.0780   9.0874   9.0874   9.4323
     9.4323  10.2931  10.3121  10.3121  11.8316  11.8330  11.8330  12.4099
    12.4099  12.5395  12.5437  12.5437  12.5665  12.5665  12.5668  12.8300
    13.5272  14.4518  14.4518  14.4543  16.0598  16.0958  16.0958  16.2416
    16.2416  16.2616  16.8172  16.8172  19.7923  19.8511  19.8511  21.2214
    21.5113  21.5113  21.5329  21.6399  21.6399  21.9884  22.0260  22.0260
    22.3399  22.4046  22.4046  23.6782  23.6782  23.6962  23.9760  24.7049
    24.7399  24.7399  26.1042  26.1042  26.3031  26.3031  26.3602  26.5904
    26.5904  26.8905  28.0761  28.0972  28.0972  29.5414  29.5414  29.6444
    29.8593  30.0458  30.0458  30.4710  30.4710  30.4955  30.8130  30.9838
    30.9838  33.1827

          k = 0.0000 0.0000 0.0000 ( 10827 PWs)   bands (ev):

   -73.3617 -73.3612 -73.3612 -73.3612 -39.5439 -39.5439 -39.5439 -39.5421
   -39.5421 -39.5415 -39.5415 -39.5415 -39.2947 -39.2941 -39.2941 -39.2941
    -4.1156  -1.9865  -1.9865  -1.9865   0.5541   0.5541   0.5541   2.0193
     6.2355   6.2355   6.2355   6.9755   6.9755   6.9755   7.8301   7.8301
     7.9537   7.9537   7.9537   8.0091   9.0807   9.0807   9.0807   9.4467
     9.4467  10.2936  10.2936  10.2936  11.8233  11.8233  11.8233  12.4133
    12.4133  12.5442  12.5442  12.5442  12.5673  12.5673  12.5673  12.8289
    13.5047  14.4536  14.4536  14.4536  16.1070  16.1070  16.1070  16.2373
    16.2373  16.2373  16.8444  16.8444  19.8194  19.8194  19.8194  21.1671
    21.6217  21.6217  21.6217  21.6753  21.6753  21.9583  21.9583  21.9583
    22.3872  22.3872  22.3872  23.6745  23.6745  23.6745  23.8722  24.7137
    24.7137  24.7137  26.1162  26.1162  26.3800  26.3800  26.3800  26.5112
    26.5112  26.8517  28.0874  28.0874  28.0874  29.7472  29.7472  29.7472
    29.8467  29.8467  29.8467  30.4940  30.4940  30.4940  30.7147  30.9037
    30.9037  33.1828

          k = 0.0250 0.0000 0.0000 ( 10803 PWs)   bands (ev):

   -73.3616 -73.3612 -73.3612 -73.3612 -39.5439 -39.5439 -39.5439 -39.5421
   -39.5421 -39.5414 -39.5414 -39.5414 -39.2947 -39.2940 -39.2940 -39.2940
    -4.1133  -1.9918  -1.9859  -1.9859   0.5549   0.5552   0.5561   2.0150
     6.2253   6.2334   6.2346   6.9643   6.9734   6.9895   7.7605   7.8349
     7.9609   7.9623   8.0045   8.0273   9.0770   9.0803   9.0885   9.4359
     9.4477  10.2896  10.2914  10.3120  11.8226  11.8280  11.8287  12.4106
    12.4138  12.5430  12.5435  12.5441  12.5671  12.5671  12.5671  12.8292
    13.5123  14.4520  14.4531  14.4546  16.0947  16.0994  16.1012  16.2374
    16.2434  16.2447  16.8264  16.8441  19.8193  19.8234  19.8274  21.1857
    21.5639  21.6201  21.6202  21.6210  21.6402  21.9648  21.9937  21.9979
    22.3660  22.3881  22.4003  23.6609  23.6743  23.6968  23.9077  24.7090
    24.7156  24.7319  26.1032  26.1212  26.3136  26.3769  26.3877  26.5094
    26.5693  26.8653  28.0745  28.0950  28.0952  29.6116  29.6634  29.7366
    29.8277  29.9324  29.9746  30.4568  30.4875  30.5226  30.7476  30.9053
    30.9564  33.1793

          k = 0.0500 0.0000 0.0000 ( 10779 PWs)   bands (ev):

   -73.3616 -73.3612 -73.3612 -73.3612 -39.5439 -39.5439 -39.5438 -39.5421
   -39.5420 -39.5414 -39.5414 -39.5413 -39.2946 -39.2940 -39.2940 -39.2939
    -4.1062  -2.0074  -1.9841  -1.9839   0.5574   0.5584   0.5619   2.0024
     6.1969   6.2270   6.2314   6.9331   6.9671   7.0294   7.6566   7.8492
     7.9823   7.9855   7.9913   8.1431   9.0658   9.0794   9.1121   9.4067
     9.4506  10.2780  10.2848  10.3635  11.8206  11.8417  11.8445  12.4025
    12.4152  12.5392  12.5399  12.5437  12.5665  12.5667  12.5683  12.8304
    13.5347  14.4473  14.4519  14.4579  16.0643  16.0772  16.0863  16.2371
    16.2591  16.2604  16.7738  16.8426  19.8185  19.8354  19.8503  21.2410
    21.4387  21.4967  21.5440  21.6157  21.6195  21.9828  22.0542  22.0573
    22.3244  22.3914  22.4377  23.6207  23.6728  23.7572  24.0065  24.6959
    24.7215  24.7848  26.0661  26.1364  26.2013  26.3676  26.4109  26.5023
    26.6564  26.9068  28.0372  28.1161  28.1171  29.4348  29.5497  29.7136
    29.7725  30.0514  30.1302  30.3833  30.4684  30.6055  30.8388  30.9066
    31.0765  33.1700

          k = 0.0750 0.0000 0.0000 ( 10779 PWs)   bands (ev):

   -73.3616 -73.3612 -73.3612 -73.3612 -39.5440 -39.5438 -39.5438 -39.5421
   -39.5420 -39.5414 -39.5414 -39.5413 -39.2946 -39.2941 -39.2940 -39.2939
    -4.0944  -2.0330  -1.9812  -1.9807   0.5615   0.5639   0.5713   1.9817
     6.1556   6.2162   6.2253   6.8881   6.9561   7.0904   7.5544   7.8721
     7.9703   8.0169   8.0175   8.2653   9.0477   9.0785   9.1519   9.3669
     9.4552  10.2594  10.2742  10.4391  11.8178  11.8633  11.8701  12.3890
    12.4174  12.5307  12.5329  12.5419  12.5657  12.5673  12.5732  12.8322
    13.5708  14.4394  14.4500  14.4634  16.0240  16.0419  16.0661  16.2366
    16.2762  16.2804  16.6904  16.8396  19.8156  19.8552  19.8851  21.2906
    21.3312  21.3395  21.4079  21.6090  21.6186  22.0085  22.0366  22.1150
    22.3278  22.3998  22.4943  23.5561  23.6676  23.8409  24.1499  24.6778
    24.7328  24.8670  26.0089  26.0780  26.1623  26.3528  26.4507  26.4864
    26.7387  26.9754  27.9792  28.1442  28.1524  29.2593  29.4414  29.6874
    29.6967  30.1652  30.2785  30.3137  30.4388  30.7328  30.8987  30.9724
    31.2224  33.1592

          k = 0.1000 0.0000 0.0000 ( 10779 PWs)   bands (ev):

   -73.3616 -73.3613 -73.3612 -73.3612 -39.5439 -39.5438 -39.5437 -39.5421
   -39.5420 -39.5414 -39.5414 -39.5413 -39.2946 -39.2940 -39.2940 -39.2939
    -4.0780  -2.0680  -1.9771  -1.9763   0.5671   0.5715   0.5838   1.9532
     6.1067   6.2008   6.2149   6.8365   6.9394   7.1679   7.4581   7.9025
     7.9435   8.0516   8.0635   8.3891   9.0233   9.0785   9.2083   9.3240
     9.4618  10.2346  10.2601  10.5292  11.8154  11.8913  11.9042  12.3703
    12.4204  12.5153  12.5247  12.5379  12.5650  12.5700  12.5825  12.8346
    13.6188  14.4288  14.4479  14.4715  15.9783  15.9961  16.0433  16.2355
    16.2878  16.3045  16.5818  16.8345  19.8080  19.8824  19.9282  21.1339
    21.1572  21.2532  21.4517  21.6026  21.6196  21.9427  22.0364  22.1623
    22.3845  22.4174  22.5619  23.4702  23.6548  23.9341  24.3126  24.6595
    24.7551  24.9712  25.9374  25.9484  26.1997  26.3333  26.4582  26.5083
    26.8153  27.0664  27.9059  28.1724  28.1986  29.0912  29.3429  29.5824
    29.7027  30.2599  30.2617  30.4054  30.4252  30.8714  30.8893  31.1342
    31.3774  33.1540

          k = 0.1250 0.0000 0.0000 ( 10771 PWs)   bands (ev):

   -73.3616 -73.3612 -73.3612 -73.3612 -39.5438 -39.5438 -39.5437 -39.5421
   -39.5419 -39.5414 -39.5414 -39.5413 -39.2945 -39.2940 -39.2940 -39.2939
    -4.0570  -2.1118  -1.9721  -1.9709   0.5742   0.5814   0.5988   1.9177
     6.0547   6.1806   6.1985   6.7854   6.9161   7.2580   7.3695   7.9130
     7.9386   8.0827   8.1201   8.5124   8.9938   9.0813   9.2810   9.2831
     9.4701  10.2048  10.2429  10.6255  11.8143  11.9238  11.9456  12.3474
    12.4242  12.4941  12.5151  12.5315  12.5643  12.5752  12.5960  12.8376
    13.6767  14.4158  14.4463  14.4825  15.9294  15.9426  16.0193  16.2335
    16.2932  16.3299  16.4537  16.8269  19.7930  19.9168  19.9765  20.9564
    20.9737  21.0916  21.5630  21.6235  21.6328  21.8286  22.0602  22.2027
    22.4497  22.4515  22.6328  23.3669  23.6302  24.0254  24.4581  24.6467
    24.8078  25.0890  25.8143  25.8570  26.2501  26.3108  26.4152  26.5848
    26.8874  27.1733  27.8236  28.1965  28.2529  28.9354  29.2558  29.4692
    29.7419  30.2214  30.3006  30.4053  30.5766  30.8169  31.0605  31.3142
    31.5342  33.1622

          k = 0.1500 0.0000 0.0000 ( 10743 PWs)   bands (ev):

   -73.3615 -73.3612 -73.3612 -73.3612 -39.5438 -39.5436 -39.5436 -39.5421
   -39.5418 -39.5414 -39.5413 -39.5412 -39.2944 -39.2940 -39.2939 -39.2938
    -4.0313  -2.1635  -1.9661  -1.9645   0.5828   0.5936   0.6157   1.8757
     6.0028   6.1556   6.1746   6.7406   6.8851   7.2896   7.3586   7.8819
     7.9781   8.1074   8.1844   8.6327   8.9607   9.0893   9.2472   9.3686
     9.4803  10.1711  10.2232  10.7210  11.8155  11.9589  11.9928  12.3211
    12.4285  12.4673  12.5049  12.5229  12.5636  12.5828  12.6134  12.8411
    13.7422  14.4007  14.4458  14.4971  15.8789  15.8848  15.9949  16.2303
    16.2913  16.3114  16.3557  16.8164  19.7674  19.9578  20.0282  20.7456
    20.8115  20.9277  21.5679  21.6306  21.7232  21.7924  22.0749  22.2397
    22.5006  22.5131  22.7015  23.2502  23.5907  24.1063  24.5395  24.6442
    24.9237  25.2122  25.6769  25.7726  26.2877  26.3160  26.3565  26.6798
    26.9536  27.2916  27.7387  28.2167  28.3115  28.7966  29.1801  29.3589
    29.8169  30.1934  30.2630  30.4558  30.7331  30.7353  31.2366  31.5058
    31.6888  33.1891

          k = 0.1750 0.0000 0.0000 ( 10751 PWs)   bands (ev):

   -73.3615 -73.3612 -73.3612 -73.3612 -39.5438 -39.5437 -39.5436 -39.5422
   -39.5418 -39.5415 -39.5413 -39.5413 -39.2944 -39.2940 -39.2940 -39.2938
    -4.0012  -2.2222  -1.9593  -1.9572   0.5926   0.6082   0.6337   1.8282
     5.9534   6.1259   6.1420   6.7060   6.8453   7.2190   7.4680   7.8531
     8.0186   8.1246   8.2533   8.7468   8.9261   9.1069   9.2171   9.4687
     9.4923  10.1343  10.2013  10.8091  11.8197  11.9944  12.0441  12.2932
    12.4335  12.4348  12.4948  12.5124  12.5630  12.5928  12.6346  12.8447
    13.8133  14.3841  14.4471  14.5158  15.8261  15.8278  15.9707  16.1594
    16.2251  16.2812  16.3808  16.8028  19.7294  20.0049  20.0820  20.5320
    20.6477  20.7633  21.5588  21.6408  21.6413  21.9836  22.0790  22.2756
    22.5665  22.5710  22.7647  23.1250  23.5353  24.1704  24.5560  24.6546
    25.0912  25.3326  25.5373  25.6877  26.2665  26.2820  26.4009  26.7911
    27.0100  27.4174  27.6580  28.2374  28.3705  28.6800  29.1149  29.2609
    29.9243  30.1687  30.2079  30.4979  30.6239  30.8995  31.4109  31.7042
    31.8384  33.2375

          k = 0.2000 0.0000 0.0000 ( 10751 PWs)   bands (ev):

   -73.3615 -73.3612 -73.3612 -73.3612 -39.5438 -39.5436 -39.5436 -39.5422
   -39.5418 -39.5415 -39.5413 -39.5413 -39.2944 -39.2940 -39.2939 -39.2939
    -3.9665  -2.2869  -1.9520  -1.9494   0.6035   0.6252   0.6522   1.7758
     5.9081   6.0918   6.1013   6.6833   6.7963   7.1578   7.5850   7.8292
     8.0571   8.1343   8.3224   8.8494   8.8934   9.1406   9.1929   9.5060
     9.5783  10.0954  10.1778  10.8832  11.8273  12.0290  12.0978  12.2669
    12.3968  12.4388  12.4861  12.5001  12.5624  12.6050  12.6595  12.8483
    13.8879  14.3665  14.4509  14.5392  15.7697  15.7768  15.9471  16.0015
    16.2172  16.2624  16.4045  16.7861  19.6785  20.0576  20.1378  20.3213
    20.4826  20.6000  21.5493  21.5903  21.6534  22.0740  22.1848  22.3115
    22.6119  22.6586  22.8211  22.9975  23.4662  24.2139  24.5363  24.6777
    25.2716  25.3969  25.4420  25.6044  26.1928  26.2507  26.5090  26.9126
    27.0520  27.5467  27.5898  28.2649  28.4256  28.5920  29.0579  29.1836
    30.0575  30.1371  30.1521  30.4997  30.5173  31.0643  31.5791  31.9053
    31.9814  33.3080

          k = 0.2250 0.0000 0.0000 ( 10743 PWs)   bands (ev):

   -73.3615 -73.3612 -73.3612 -73.3612 -39.5437 -39.5435 -39.5435 -39.5423
   -39.5417 -39.5416 -39.5414 -39.5413 -39.2944 -39.2940 -39.2939 -39.2938
    -3.9276  -2.3568  -1.9441  -1.9411   0.6154   0.6447   0.6704   1.7194
     5.8683   6.0539   6.0544   6.6721   6.7384   7.1059   7.7088   7.8122
     8.0910   8.1375   8.3857   8.8682   8.9340   9.1740   9.1981   9.5214
     9.6939  10.0550  10.1529  10.9367  11.8383  12.0611  12.1524  12.2460
    12.3535  12.4444  12.4796  12.4860  12.5619  12.6195  12.6872  12.8515
    13.9642  14.3487  14.4586  14.5680  15.7179  15.7269  15.8415  15.9246
    16.2058  16.2345  16.4263  16.7665  19.6165  20.1153  20.1181  20.1953
    20.3176  20.4393  21.5412  21.5724  21.6671  22.0617  22.3478  22.3776
    22.6508  22.7602  22.8699  22.8826  23.3886  24.2351  24.4948  24.7110
    25.2573  25.4427  25.5249  25.5323  26.0906  26.2436  26.6444  27.0296
    27.0759  27.5481  27.6744  28.3048  28.4720  28.5394  29.0064  29.1337
    30.0824  30.1025  30.2088  30.3797  30.5122  31.2201  31.7391  32.1052
    32.1172  33.3972

          k = 0.2500 0.0000 0.0000 ( 10699 PWs)   bands (ev):

   -73.3615 -73.3612 -73.3612 -73.3612 -39.5435 -39.5434 -39.5433 -39.5422
   -39.5416 -39.5415 -39.5413 -39.5412 -39.2942 -39.2939 -39.2938 -39.2938
    -3.8843  -2.4309  -1.9359  -1.9326   0.6281   0.6668   0.6879   1.6599
     5.8348   6.0041   6.0133   6.6708   6.6724   7.0625   7.8031   7.8381
     8.1179   8.1355   8.4337   8.8592   9.0003   9.1594   9.2811   9.5384
     9.8119  10.0136  10.1269  10.9631  11.8520  12.0900  12.2064  12.2346
    12.3057  12.4503  12.4701  12.4763  12.5617  12.6366  12.7171  12.8541
    14.0407  14.3314  14.4706  14.6029  15.6574  15.6787  15.6977  15.9036
    16.1896  16.1974  16.4456  16.7442  19.5467  19.9262  20.1553  20.1776
    20.2549  20.2824  21.5352  21.5857  21.6805  22.0434  22.3843  22.4981
    22.6842  22.8407  22.8716  22.9108  23.3101  24.2350  24.4378  24.7510
    25.1205  25.4472  25.5969  25.5979  25.9771  26.2485  26.8090  27.0797
    27.1105  27.5620  27.7945  28.3607  28.5040  28.5283  28.9582  29.1157
    29.9862  30.0644  30.2868  30.3703  30.4843  31.3510  31.8914  32.2462
    32.2980  33.4976

          k = 0.2750 0.0000 0.0000 ( 10727 PWs)   bands (ev):

   -73.3615 -73.3612 -73.3612 -73.3612 -39.5435 -39.5434 -39.5434 -39.5423
   -39.5416 -39.5416 -39.5414 -39.5413 -39.2943 -39.2940 -39.2939 -39.2938
    -3.8369  -2.5084  -1.9277  -1.9241   0.6415   0.6916   0.7041   1.5981
     5.8084   5.9531   5.9711   6.5999   6.6773   7.0266   7.8023   7.9715
     8.1295   8.1364   8.4567   8.8762   9.0560   9.1479   9.3820   9.5570
     9.9267   9.9735  10.1001  10.9580  11.8676  12.1146  12.2359  12.2542
    12.2583  12.4523  12.4561  12.4769  12.5616  12.6558  12.7474  12.8552
    14.1163  14.3154  14.4874  14.6441  15.5121  15.6327  15.6500  15.8842
    16.1509  16.1676  16.4618  16.7197  19.4732  19.7491  19.9984  20.1307
    20.2437  20.3165  21.5319  21.6260  21.6916  22.0190  22.4207  22.4551
    22.7134  22.9432  22.9586  22.9852  23.2436  24.2161  24.3694  24.7937
    24.9893  25.3762  25.6321  25.7308  25.8544  26.2683  27.0015  27.0640
    27.1243  27.6581  27.9011  28.4337  28.5136  28.5612  28.9149  29.1287
    29.8548  30.0412  30.2229  30.4373  30.5343  31.4358  32.0392  32.3698
    32.4742  33.5299

          k = 0.3000 0.0000 0.0000 ( 10723 PWs)   bands (ev):

   -73.3614 -73.3612 -73.3612 -73.3612 -39.5436 -39.5433 -39.5433 -39.5423
   -39.5416 -39.5416 -39.5414 -39.5413 -39.2943 -39.2940 -39.2939 -39.2938
    -3.7854  -2.5886  -1.9195  -1.9158   0.6552   0.7185   0.7192   1.5347
     5.7898   5.9038   5.9285   6.5228   6.6895   6.9971   7.8093   8.1065
     8.1211   8.1462   8.4525   8.9222   9.1092   9.1384   9.4924   9.5770
     9.9264  10.0430  10.0725  10.9197  11.8838  12.1328  12.2033  12.2509
    12.3066  12.4327  12.4619  12.4820  12.5622  12.6772  12.7772  12.8546
    14.1900  14.3018  14.5092  14.6919  15.3563  15.5899  15.6272  15.8664
    16.0956  16.1386  16.4747  16.6935  19.4004  19.5897  19.8500  19.9856
    20.3133  20.3802  21.5314  21.6883  21.6989  21.9873  22.3390  22.4567
    22.7393  22.9667  23.0677  23.1400  23.2285  24.1819  24.2933  24.8360
    24.8680  25.3118  25.6387  25.7244  25.8454  26.3050  27.0323  27.0863
    27.2173  27.8166  27.9890  28.4901  28.5226  28.6354  28.8838  29.1629
    29.7184  30.0334  30.1719  30.3765  30.6930  31.4559  32.1816  32.4893
    32.6165  33.3387

          k = 0.3250 0.0000 0.0000 ( 10736 PWs)   bands (ev):

   -73.3614 -73.3613 -73.3612 -73.3612 -39.5436 -39.5433 -39.5433 -39.5424
   -39.5417 -39.5416 -39.5415 -39.5414 -39.2943 -39.2940 -39.2940 -39.2938
    -3.7300  -2.6706  -1.9116  -1.9079   0.6690   0.7308   0.7496   1.4706
     5.7794   5.8580   5.8870   6.4430   6.7059   6.9727   7.8237   8.1113
     8.1482   8.2377   8.4312   8.9909   9.1294   9.1635   9.5982   9.6070
     9.8834  10.0446  10.1456  10.8505  11.8994  12.1240  12.1753  12.2774
    12.3500  12.4117  12.4677  12.4919  12.5638  12.7006  12.8046  12.8515
    14.2614  14.2915  14.5354  14.7463  15.2048  15.5508  15.6164  15.8502
    16.0319  16.1019  16.4843  16.6662  19.3320  19.4507  19.7123  19.8484
    20.3855  20.4457  21.5339  21.7011  21.7681  21.9466  22.2091  22.4914
    22.7622  22.9802  23.0695  23.3168  23.3197  24.1365  24.2131  24.7629
    24.8755  25.2563  25.5891  25.6207  25.9454  26.3589  26.9906  27.0237
    27.4504  28.0060  28.0537  28.4269  28.6244  28.7433  28.8716  29.1909
    29.6163  30.0371  30.1241  30.3085  30.8376  31.4078  32.3009  32.6062
    32.6946  33.1891

          k = 0.3500 0.0000 0.0000 ( 10720 PWs)   bands (ev):

   -73.3614 -73.3613 -73.3612 -73.3612 -39.5434 -39.5432 -39.5432 -39.5425
   -39.5417 -39.5416 -39.5415 -39.5413 -39.2943 -39.2940 -39.2940 -39.2938
    -3.6708  -2.7539  -1.9042  -1.9006   0.6827   0.7407   0.7830   1.4063
     5.7774   5.8172   5.8477   6.3625   6.7252   6.9522   7.8446   8.1013
     8.1438   8.3309   8.4330   9.0749   9.1198   9.2197   9.6205   9.7228
     9.8395  10.0166  10.2358  10.7547  11.9128  12.0781  12.1836  12.3118
    12.3873  12.3894  12.4732  12.5056  12.5676  12.7256  12.8286  12.8454
    14.2861  14.3302  14.5645  14.8071  15.0603  15.5162  15.6162  15.8354
    15.9614  16.0570  16.4909  16.6388  19.2715  19.3340  19.5870  19.7204
    20.4595  20.5126  21.5395  21.6971  21.8610  21.8961  22.0793  22.5237
    22.7826  22.9829  23.0565  23.4552  23.4633  24.0842  24.1326  24.6827
    24.9108  25.2121  25.4509  25.5837  26.0349  26.4292  26.9459  26.9504
    27.6949  28.0906  28.2078  28.3294  28.7345  28.8741  28.8767  29.1707
[...]
    22.2435  22.6962  22.8214  23.6438  24.1272  24.4776  24.6515  25.0627
    25.2699  25.4273  25.6469  25.9362  26.3171  26.7166  26.7335  27.2621
    27.5360  27.5873  28.2482  28.3324  28.3807  29.3902  29.4524  29.6498
    29.9065  30.0457  30.6577  31.2390  31.6162  31.9561  32.2972  32.4934
    33.1106  33.2216

          k = 0.3500 0.3500 0.0000 ( 10682 PWs)   bands (ev):

   -73.3613 -73.3612 -73.3612 -73.3611 -39.5433 -39.5431 -39.5426 -39.5426
   -39.5419 -39.5417 -39.5413 -39.5412 -39.2941 -39.2939 -39.2938 -39.2938
    -3.2611  -2.4679  -2.4652  -2.0529   0.6319   0.6917   0.8597   1.0330
     5.4442   5.5573   6.1086   6.1205   6.8177   7.4126   7.4677   7.7707
     8.4370   8.7965   9.0608   9.1143   9.3653   9.4496   9.6191   9.6686
     9.9242  10.4347  10.4934  11.2250  11.9829  12.0014  12.0869  12.1831
    12.3226  12.3553  12.4833  12.4985  12.5816  12.7053  12.7704  12.8220
    14.2940  14.4545  14.7229  14.8217  14.8397  15.0056  15.4229  15.4418
    15.8991  16.0319  16.2176  16.4154  19.5181  19.5611  19.7957  19.9443
    20.2332  20.3295  20.4982  20.9332  21.0501  21.3422  21.6400  22.0140
    22.3279  22.7937  22.8783  23.8388  23.9757  24.4346  24.5449  24.9521
    25.1963  25.3775  25.6427  25.9019  26.2782  26.6628  26.7114  27.3321
    27.5161  27.5509  28.1909  28.3696  28.4409  29.2678  29.4827  29.7454
    29.8085  30.1579  30.7463  31.2902  31.3949  31.6957  32.2098  32.3085
    32.9679  33.2547

          k = 0.3250 0.3250 0.0000 ( 10681 PWs)   bands (ev):

   -73.3613 -73.3612 -73.3612 -73.3611 -39.5433 -39.5432 -39.5426 -39.5425
   -39.5419 -39.5417 -39.5412 -39.5412 -39.2941 -39.2939 -39.2938 -39.2938
    -3.3696  -2.4340  -2.4311  -2.0082   0.6191   0.6929   0.8585   1.1046
     5.4644   5.5777   6.1637   6.2250   6.7700   7.3717   7.3854   7.7802
     8.3569   8.7472   8.9662   9.0778   9.3207   9.4706   9.6472   9.7575
     9.8434  10.3494  10.4185  11.2696  11.9776  12.0442  12.0988  12.2050
    12.2844  12.3569  12.4309  12.4858  12.6049  12.7051  12.7569  12.8326
    14.2458  14.4296  14.7009  14.8793  14.9150  14.9864  15.5314  15.5384
    15.9026  16.0204  16.2252  16.4472  19.4641  19.6253  19.8023  20.0027
    20.1859  20.3779  20.4893  20.9621  21.1160  21.5163  21.7557  22.0698
    22.3725  22.8896  22.9092  23.8734  23.9265  24.4407  24.4557  24.7667
    25.1867  25.3536  25.6424  25.9329  26.2284  26.5545  26.7123  27.2010
    27.5185  27.5653  28.2004  28.3849  28.5429  29.0922  29.5069  29.5883
    29.8871  30.3197  30.8091  31.2608  31.2796  31.4531  32.1029  32.1761
    32.7384  33.1624

          k = 0.3000 0.3000 0.0000 ( 10691 PWs)   bands (ev):

   -73.3613 -73.3612 -73.3612 -73.3611 -39.5435 -39.5432 -39.5427 -39.5424
   -39.5419 -39.5418 -39.5412 -39.5412 -39.2941 -39.2939 -39.2939 -39.2938
    -3.4729  -2.3962  -2.3931  -1.9757   0.6079   0.6938   0.8501   1.1846
     5.4991   5.6060   6.1764   6.3478   6.7689   7.2828   7.3535   7.7718
     8.2910   8.7142   8.8654   9.0196   9.2598   9.4713   9.6583   9.7642
     9.8710  10.2665  10.3208  11.2796  11.9868  12.0747  12.1215  12.2364
    12.2430  12.3490  12.3907  12.4818  12.6246  12.6985  12.7402  12.8431
    14.2038  14.4100  14.6723  14.9313  14.9334  15.0297  15.6208  15.6344
    15.9435  16.0162  16.2331  16.4738  19.4488  19.7134  19.7933  20.0598
    20.1563  20.4491  20.5169  21.0026  21.1679  21.6304  21.8513  22.2071
    22.4007  22.9028  22.9628  23.8249  23.8607  24.3511  24.5548  24.6010
    25.1110  25.4434  25.6467  26.0047  26.1662  26.4243  26.7199  27.0675
    27.4621  27.5171  28.2791  28.3968  28.6234  28.8941  29.4253  29.5553
    29.9320  30.4290  30.7171  31.1119  31.3345  31.3447  31.9801  32.1381
    32.5500  32.9619

          k = 0.2750 0.2750 0.0000 ( 10711 PWs)   bands (ev):

   -73.3614 -73.3612 -73.3612 -73.3612 -39.5435 -39.5433 -39.5429 -39.5423
   -39.5419 -39.5418 -39.5413 -39.5412 -39.2942 -39.2939 -39.2939 -39.2939
    -3.5703  -2.3551  -2.3520  -1.9542   0.5983   0.6930   0.8346   1.2721
     5.5471   5.6417   6.1669   6.4724   6.8061   7.2093   7.3156   7.7423
     8.2376   8.7023   8.7673   8.9509   9.1899   9.4606   9.6228   9.6988
     9.9772  10.1989  10.2138  11.2534  12.0126  12.0749  12.1662  12.2018
    12.2741  12.3174  12.3794  12.4853  12.6370  12.6861  12.7205  12.8527
    14.1659  14.3956  14.6376  14.8509  15.0011  15.1647  15.6887  15.7313
    16.0086  16.0249  16.2417  16.4961  19.4658  19.7704  19.8221  20.0857
    20.1927  20.5316  20.5831  21.0541  21.2022  21.6906  21.9144  22.3979
    22.4276  22.8766  22.9950  23.7307  23.8009  24.2993  24.3579  24.7860
    25.0197  25.5819  25.6533  26.0866  26.0935  26.2831  26.7322  26.9446
    27.2557  27.5660  28.3651  28.3866  28.6684  28.6946  29.2887  29.6153
    29.9319  30.3726  30.6474  30.8794  31.3007  31.4879  31.8420  32.2299
    32.4119  32.7710

          k = 0.2500 0.2500 0.0000 ( 10685 PWs)   bands (ev):

   -73.3614 -73.3612 -73.3612 -73.3611 -39.5435 -39.5433 -39.5429 -39.5422
   -39.5418 -39.5417 -39.5412 -39.5411 -39.2941 -39.2939 -39.2938 -39.2937
    -3.6611  -2.3115  -2.3085  -1.9420   0.5899   0.6890   0.8126   1.3653
     5.6070   5.6843   6.1505   6.5897   6.8662   7.1616   7.2724   7.6930
     8.1894   8.6828   8.7087   8.8801   9.1155   9.4448   9.5221   9.6574
     9.9972  10.1545  10.1696  11.1957  12.0506  12.0589  12.1548  12.2234
    12.2808  12.3147  12.3799  12.4937  12.6407  12.6694  12.6978  12.8599
    14.1291  14.3866  14.5986  14.7611  15.0840  15.3159  15.7430  15.8225
    16.0348  16.0953  16.2512  16.5157  19.5091  19.7418  19.9457  20.1027
    20.2790  20.6225  20.6818  21.1163  21.2184  21.7304  21.9292  22.4617
    22.5477  22.9016  22.9736  23.6028  23.7541  24.1714  24.3097  24.9317
    25.0058  25.6537  25.7257  26.0172  26.1437  26.1544  26.7518  26.8172
    27.0047  27.6595  28.3443  28.4102  28.5273  28.6756  29.1840  29.6995
    29.8578  30.1829  30.6617  30.6691  31.2609  31.5991  31.6953  32.3186
    32.4143  32.6438

          k = 0.2250 0.2250 0.0000 ( 10731 PWs)   bands (ev):

   -73.3614 -73.3612 -73.3612 -73.3612 -39.5437 -39.5435 -39.5431 -39.5422
   -39.5419 -39.5418 -39.5413 -39.5413 -39.2943 -39.2939 -39.2939 -39.2939
    -3.7447  -2.2663  -2.2635  -1.9374   0.5827   0.6812   0.7851   1.4616
     5.6769   5.7337   6.1382   6.6843   6.9369   7.1540   7.2261   7.6294
     8.1350   8.6218   8.7082   8.8313   9.0388   9.3946   9.4270   9.6053
     9.8873  10.1333  10.2325  11.1142  12.0332  12.0916  12.1121  12.2504
    12.2764  12.3542  12.3827  12.5041  12.6353  12.6504  12.6729  12.8632
    14.0883  14.3828  14.5576  14.6758  15.1821  15.4777  15.7857  15.9085
    16.0598  16.1746  16.2616  16.5350  19.5743  19.7147  20.0783  20.1382
    20.3853  20.7228  20.7996  21.1900  21.2207  21.7703  21.8940  22.4892
    22.5679  22.9038  23.0462  23.5009  23.6782  24.0143  24.3712  24.9009
    25.1975  25.6254  25.8554  25.9503  26.0252  26.2016  26.6010  26.7865
    26.8157  27.7563  28.2693  28.3035  28.5108  28.6562  29.1431  29.7193
    29.7955  29.9812  30.4719  30.6880  31.2201  31.5547  31.6390  32.2547
    32.3730  32.8571

          k = 0.2000 0.2000 0.0000 ( 10703 PWs)   bands (ev):

   -73.3614 -73.3612 -73.3612 -73.3611 -39.5437 -39.5434 -39.5432 -39.5420
   -39.5418 -39.5415 -39.5413 -39.5412 -39.2942 -39.2939 -39.2939 -39.2938
    -3.8207  -2.2205  -2.2180  -1.9385   0.5764   0.6693   0.7534   1.5581
     5.7545   5.7900   6.1350   6.7418   7.0108   7.1820   7.1953   7.5621
     8.0672   8.5858   8.6518   8.8494   8.9600   9.2599   9.4091   9.5365
     9.7551  10.1304  10.2991  11.0162  12.0021  12.0681  12.1194  12.2353
    12.3281  12.3823  12.3960  12.5149  12.6232  12.6312  12.6476  12.8626
    14.0379  14.3843  14.5183  14.6048  15.2939  15.6438  15.8216  15.9911
    16.0901  16.2431  16.2735  16.5571  19.6567  19.6948  20.1922  20.2098
    20.5060  20.8378  20.9057  21.2322  21.2754  21.8180  21.8297  22.4620
    22.5309  22.8203  23.1880  23.4324  23.6297  23.8999  24.4475  24.8855
    25.3874  25.5404  25.8962  25.9497  25.9514  26.2503  26.2982  26.7126
    26.8361  27.7932  28.1692  28.1776  28.5291  28.6336  29.1933  29.5560
    29.7954  29.8813  30.3239  30.6799  31.1616  31.4402  31.6038  32.1981
    32.2298  33.0961

          k = 0.1750 0.1750 0.0000 ( 10707 PWs)   bands (ev):

   -73.3615 -73.3612 -73.3612 -73.3611 -39.5437 -39.5435 -39.5433 -39.5420
   -39.5418 -39.5415 -39.5413 -39.5412 -39.2942 -39.2939 -39.2939 -39.2938
    -3.8885  -2.1753  -2.1731  -1.9436   0.5711   0.6539   0.7191   1.6520
     5.8369   5.8529   6.1415   6.7690   7.0719   7.1572   7.2577   7.5154
     7.9892   8.5603   8.5624   8.8749   8.9061   9.1370   9.3915   9.4559
     9.6294  10.1408  10.3479  10.9077  11.9687  12.0230  12.1114  12.2502
    12.3765  12.3879  12.4291  12.5247  12.6075  12.6127  12.6242  12.8586
    13.9728  14.3904  14.4850  14.5520  15.4163  15.8023  15.8551  16.0748
    16.1215  16.2871  16.2941  16.5852  19.6851  19.7441  20.2683  20.3204
    20.6391  20.9479  20.9735  21.3097  21.3703  21.7633  21.8732  22.3376
    22.4927  22.7555  23.1797  23.4013  23.7013  23.8322  24.5089  24.8813
    25.4105  25.5577  25.7671  25.9082  25.9991  26.0777  26.3338  26.6324
    26.8848  27.7255  28.0697  28.1041  28.5228  28.6357  29.3251  29.4045
    29.6402  29.9228  30.2465  30.6466  31.0673  31.3645  31.4957  32.0685
    32.1173  32.9787

          k = 0.1500 0.1500 0.0000 ( 10733 PWs)   bands (ev):

   -73.3615 -73.3612 -73.3612 -73.3611 -39.5437 -39.5436 -39.5434 -39.5420
   -39.5419 -39.5415 -39.5413 -39.5413 -39.2943 -39.2940 -39.2939 -39.2938
    -3.9480  -2.1319  -2.1302  -1.9512   0.5665   0.6357   0.6839   1.7401
     5.9206   5.9215   6.1554   6.7868   7.0696   7.2054   7.2665   7.5445
     7.9104   8.4614   8.5215   8.7718   8.9744   9.0522   9.3702   9.3728
     9.5242  10.1604  10.3759  10.7934  11.9357  11.9778  12.0729  12.2841
    12.3927  12.4203  12.4598  12.5331  12.5919  12.5960  12.6044  12.8527
    13.8930  14.4001  14.4621  14.5154  15.5449  15.8897  15.9322  16.1511
    16.1691  16.3065  16.3248  16.6216  19.6867  19.8140  20.3694  20.3841
    20.7833  20.9569  21.1303  21.4551  21.4709  21.7110  21.9314  22.1482
    22.4688  22.6855  23.0562  23.4091  23.8003  23.8323  24.5413  24.8765
    25.2684  25.4651  25.7043  25.8805  26.0200  26.0554  26.4428  26.5638
    26.9132  27.5764  28.0133  28.0596  28.4827  28.6827  29.2891  29.4923
    29.5313  29.9115  30.2519  30.6001  30.9461  31.3116  31.3273  31.8793
    31.9829  32.9418

          k = 0.1250 0.1250 0.0000 ( 10765 PWs)   bands (ev):

   -73.3615 -73.3612 -73.3612 -73.3612 -39.5438 -39.5437 -39.5436 -39.5421
   -39.5420 -39.5414 -39.5414 -39.5413 -39.2945 -39.2940 -39.2940 -39.2939
    -3.9988  -2.0918  -2.0905  -1.9597   0.5627   0.6162   0.6497   1.8199
     5.9939   6.0021   6.1738   6.8092   7.0423   7.2131   7.2915   7.6428
     7.8407   8.3542   8.4521   8.6441   9.0196   9.0415   9.2874   9.3489
     9.4557  10.1864  10.3839  10.6778  11.9050  11.9350  12.0200  12.3203
    12.3978  12.4587  12.4863  12.5396  12.5794  12.5819  12.5891  12.8462
    13.8037  14.4121  14.4501  14.4907  15.6741  15.9272  16.0154  16.1771
    16.2529  16.3357  16.3632  16.6667  19.6996  19.8500  20.3192  20.5553
    20.9373  21.0191  21.2972  21.5755  21.6065  21.6763  21.9531  21.9868
    22.4623  22.5923  22.8942  23.4473  23.7845  23.9202  24.5493  24.8629
    25.1104  25.1422  25.8322  25.8896  26.0460  26.0793  26.5057  26.5403
    26.9100  27.3981  27.9972  28.0360  28.4108  28.7820  29.2265  29.4782
    29.6359  29.9152  30.2910  30.5508  30.8157  31.1156  31.2571  31.6612
    31.7961  32.9771

          k = 0.1000 0.1000 0.0000 ( 10755 PWs)   bands (ev):

   -73.3616 -73.3612 -73.3612 -73.3612 -39.5438 -39.5437 -39.5436 -39.5420
   -39.5419 -39.5414 -39.5414 -39.5413 -39.2944 -39.2940 -39.2940 -39.2939
    -4.0406  -2.0563  -2.0554  -1.9682   0.5596   0.5970   0.6183   1.8887
     6.0660   6.0771   6.1931   6.8418   7.0179   7.1439   7.3896   7.7544
     7.7890   8.2454   8.3531   8.5008   9.0234   9.0902   9.2145   9.3306
     9.4290  10.2157  10.3744  10.5655  11.8777  11.8970  11.9619  12.3526
    12.4030  12.4907  12.5083  12.5443  12.5713  12.5720  12.5781  12.8404
    13.7132  14.4247  14.4464  14.4745  15.7982  15.9677  16.0610  16.1988
    16.2774  16.3293  16.4892  16.7168  19.7225  19.8563  20.1981  20.7768
    21.0997  21.1385  21.4481  21.6196  21.6503  21.6924  21.8995  22.0343
    22.4674  22.4849  22.7203  23.5024  23.7678  23.9223  24.5382  24.7989
    24.8371  25.0146  25.9304  25.9507  26.0928  26.1016  26.4585  26.5977
    26.8736  27.2233  28.0096  28.0334  28.3209  28.9307  29.2284  29.4786
    29.7154  29.9835  30.3290  30.5005  30.6862  30.8813  31.1881  31.4241
    31.5804  33.0484

          k = 0.0750 0.0750 0.0000 ( 10759 PWs)   bands (ev):

   -73.3616 -73.3612 -73.3612 -73.3612 -39.5438 -39.5438 -39.5437 -39.5420
   -39.5419 -39.5414 -39.5414 -39.5413 -39.2945 -39.2940 -39.2940 -39.2939
    -4.0733  -2.0269  -2.0264  -1.9757   0.5572   0.5797   0.5916   1.9445
     6.1326   6.1416   6.2106   6.8834   6.9993   7.0779   7.4975   7.7627
     7.8542   8.1415   8.2366   8.3507   9.0419   9.1038   9.1560   9.3478
     9.4265  10.2451  10.3522  10.4621  11.8550  11.8657  11.9070  12.3789
    12.4074  12.5156  12.5250  12.5462  12.5670  12.5673  12.5710  12.8355
    13.6302  14.4363  14.4474  14.4642  15.9111  16.0104  16.0857  16.2157
    16.2777  16.3095  16.6255  16.7660  19.7525  19.8471  20.0579  21.0298
    21.2680  21.2831  21.4597  21.5520  21.6362  21.8282  22.0052  22.0705
    22.3847  22.4666  22.5518  23.5628  23.7424  23.8526  24.3792  24.6714
    24.8005  24.9029  25.9911  26.0666  26.1141  26.1626  26.4229  26.6080
    26.8050  27.0709  28.0351  28.0475  28.2306  29.1200  29.2980  29.5247
    29.7634  30.0692  30.3591  30.4238  30.5692  30.6671  31.1023  31.1820
    31.3593  33.1177

          k = 0.0500 0.0500 0.0000 ( 10775 PWs)   bands (ev):

   -73.3616 -73.3612 -73.3612 -73.3612 -39.5439 -39.5438 -39.5438 -39.5421
   -39.5420 -39.5414 -39.5414 -39.5413 -39.2945 -39.2940 -39.2940 -39.2939
    -4.0968  -2.0049  -2.0046  -1.9816   0.5555   0.5660   0.5712   1.9856
     6.1871   6.1919   6.2242   6.9272   6.9863   7.0239   7.6150   7.7666
     7.9298   8.0537   8.1172   8.1991   9.0617   9.0949   9.1140   9.3913
     9.4339  10.2703  10.3250  10.3752  11.8379  11.8424  11.8623  12.3979
    12.4106  12.5328  12.5363  12.5458  12.5661  12.5662  12.5674  12.8318
    13.5634  14.4456  14.4502  14.4579  16.0067  16.0531  16.0988  16.2278
    16.2668  16.2811  16.7405  16.8074  19.7843  19.8338  19.9339  21.2911
    21.3073  21.4308  21.4374  21.6102  21.6277  21.9428  22.0539  22.0846
    22.3398  22.4056  22.4557  23.6187  23.7114  23.7628  24.1291  24.6853
    24.7599  24.8065  26.0535  26.1177  26.1835  26.2485  26.3985  26.5833
    26.7067  26.9535  28.0613  28.0671  28.1550  29.3377  29.4251  29.6067
    29.8060  30.0926  30.2514  30.3899  30.4975  30.5549  30.9550  31.0100
    31.1519  33.1611

          k = 0.0250 0.0250 0.0000 ( 10807 PWs)   bands (ev):

   -73.3616 -73.3612 -73.3612 -73.3612 -39.5439 -39.5439 -39.5439 -39.5422
   -39.5421 -39.5414 -39.5414 -39.5414 -39.2947 -39.2940 -39.2940 -39.2940
    -4.1109  -1.9912  -1.9911  -1.9853   0.5544   0.5571   0.5585   2.0108
     6.2230   6.2243   6.2327   6.9620   6.9782   6.9881   7.7392   7.7990
     7.9629   8.0063   8.0104   8.0525   9.0757   9.0846   9.0890   9.4311
     9.4428  10.2875  10.3024  10.3153  11.8270  11.8281  11.8333  12.4095
    12.4126  12.5417  12.5424  12.5447  12.5668  12.5669  12.5669  12.8296
    13.5198  14.4515  14.4526  14.4546  16.0775  16.0901  16.1051  16.2350
    16.2488  16.2519  16.8174  16.8348  19.8096  19.8233  19.8494  21.2038
    21.5245  21.5601  21.5931  21.6232  21.6421  21.9754  22.0022  22.0287
    22.3673  22.3729  22.4107  23.6594  23.6850  23.6973  23.9422  24.7058
    24.7267  24.7386  26.0994  26.1170  26.3006  26.3339  26.3845  26.5409
    26.5917  26.8783  28.0804  28.0821  28.1049  29.5666  29.5918  29.7005
    29.8362  29.9919  30.0254  30.4500  30.4885  30.5122  30.7808  30.9341
    30.9813  33.1788

          k = 0.0000 0.0000 0.0000 ( 10827 PWs)   bands (ev):

   -73.3617 -73.3612 -73.3612 -73.3612 -39.5439 -39.5439 -39.5439 -39.5421
   -39.5421 -39.5415 -39.5415 -39.5415 -39.2947 -39.2941 -39.2941 -39.2941
    -4.1156  -1.9865  -1.9865  -1.9865   0.5541   0.5541   0.5541   2.0193
     6.2355   6.2355   6.2355   6.9755   6.9755   6.9755   7.8301   7.8301
     7.9537   7.9537   7.9537   8.0091   9.0807   9.0807   9.0807   9.4467
     9.4467  10.2936  10.2936  10.2936  11.8233  11.8233  11.8233  12.4133
    12.4133  12.5442  12.5442  12.5442  12.5673  12.5673  12.5673  12.8289
    13.5047  14.4536  14.4536  14.4536  16.1070  16.1070  16.1070  16.2373
    16.2373  16.2373  16.8444  16.8444  19.8194  19.8194  19.8194  21.1671
    21.6217  21.6217  21.6217  21.6753  21.6753  21.9583  21.9583  21.9583
    22.3872  22.3872  22.3872  23.6745  23.6745  23.6745  23.8722  24.7137
    24.7137  24.7137  26.1162  26.1162  26.3800  26.3800  26.3800  26.5112
    26.5112  26.8517  28.0874  28.0874  28.0874  29.7472  29.7472  29.7472
    29.8467  29.8467  29.8467  30.4940  30.4940  30.4940  30.7147  30.9037
    30.9037  33.1828

     Writing all to output data dir ./work/pwscf.save/

     init_run     :      0.99s CPU      1.12s WALL (       1 calls)
     electrons    :    383.53s CPU    395.69s WALL (       1 calls)

     Called by init_run:
     wfcinit      :      0.00s CPU      0.00s WALL (       1 calls)
     wfcinit:atom :      0.05s CPU      0.05s WALL (      81 calls)
     wfcinit:wfcr :      7.63s CPU      8.09s WALL (      81 calls)
     potinit      :      0.28s CPU      0.32s WALL (       1 calls)
     hinit0       :      0.48s CPU      0.48s WALL (       1 calls)

     Called by electrons:
     c_bands      :    383.52s CPU    395.68s WALL (       1 calls)
     v_of_rho     :      0.02s CPU      0.02s WALL (       1 calls)
     v_h          :      0.00s CPU      0.00s WALL (       1 calls)
     v_xc         :      0.02s CPU      0.02s WALL (       1 calls)
     newd         :      0.05s CPU      0.14s WALL (       1 calls)

     Called by c_bands:
     init_us_2    :      0.06s CPU      0.07s WALL (      81 calls)
     init_us_2:cp :      0.06s CPU      0.07s WALL (      81 calls)
     cegterg      :    374.96s CPU    386.02s WALL (     353 calls)

     Called by sum_band:

     Called by *egterg:
     cdiaghg      :     75.30s CPU     75.63s WALL (    6442 calls)
     cegterg:over :     45.31s CPU     46.17s WALL (    6361 calls)
     cegterg:upda :     17.13s CPU     17.19s WALL (    6361 calls)
     cegterg:last :     40.10s CPU     40.12s WALL (    2261 calls)
     h_psi        :    160.19s CPU    169.91s WALL (    6795 calls)
     s_psi        :     16.40s CPU     16.72s WALL (    6795 calls)
     g_psi        :      0.99s CPU      1.00s WALL (    6361 calls)

     Called by h_psi:
     h_psi:calbec :     23.70s CPU     24.90s WALL (    6795 calls)
     vloc_psi     :    117.46s CPU    125.77s WALL (    6795 calls)
     add_vuspsi   :     17.87s CPU     18.07s WALL (    6795 calls)

     General routines
     calbec       :     23.69s CPU     24.89s WALL (    6795 calls)
     fft          :      0.36s CPU      0.37s WALL (      13 calls)
     ffts         :      0.26s CPU      0.26s WALL (       1 calls)
     fftw         :    108.70s CPU    116.39s WALL (  545328 calls)
     interpolate  :      0.27s CPU      0.27s WALL (       1 calls)

     Parallel routines

     PWSCF        :   6m25.77s CPU   6m52.93s WALL


   This run was terminated on:  20:38:33  20Sep2023            

=------------------------------------------------------------------------------=
   JOB DONE.
=------------------------------------------------------------------------------=
