<UPF version="2.0.1">
  <PP_INFO>
    Generated using "atomic" code by A. Dal Corso  v.7.2
    Author: ADC
    Generation date: 20Sep2023
    Pseudopotential type: USPP
    Element: Hg
    Functional: PBE
    Suggested minimum cutoff for wavefunctions:  30. Ry
    Suggested minimum cutoff for charge density: 121. Ry
    The Pseudo was generated with a Fully-Relativistic Calculation
    Local Potential by smoothing AE potential with Bessel fncs, cutoff radius:   1.9000
    Pseudopotential contains additional information for spin-orbit calculations.
    Valence configuration: 
    nl pn  l   occ       Rcut    Rcut US       E pseu
    6S  1  0  2.00      2.000      2.100    -0.501906
    6P  2  1  0.00      2.100      2.300    -0.114189
    6P  2  1  0.00      2.100      2.300    -0.066096
    5D  3  2  4.00      1.800      2.200    -0.808094
    5D  3  2  6.00      1.800      2.200    -0.673247
    Generation configuration:
    6S  1  0  2.00      2.000      2.100    -0.501904
    6S  1  0  0.00      1.700      2.100     2.300000
    6P  2  1  0.00      2.100      2.300    -0.114191
    6P  2  1  0.00      2.100      2.300    -0.066095
    6P  2  1  0.00      1.800      2.300     8.000000
    6P  2  1  0.00      1.800      2.300     8.000000
    5D  3  2  4.00      1.800      2.200    -0.808094
    5D  3  2  6.00      1.800      2.200    -0.673246
    5D  3  2  0.00      1.800      2.200     4.300000
    5D  3  2  0.00      1.800      2.200     4.300000
    Pseudization used: troullier-martins
    <PP_INPUTFILE>
@input
title='Hg',
zed=80.0,
rel=2,
config='[Xe] 4f14. 5d10 6s2 6p0.0',
iswitch=3,
dft='PBE'
/
@inputp
pseudotype=3,
file_pseudopw='Hg.rel-pbe-dn-rrkjus_psl.0.2.2.UPF',
author='ADC',
lloc=-1,
rcloc=1.9,
which_augfun='PSQ',
rmatch_augfun=1.9,
nlcc=.true.,
new_core_ps=.true.,
rcore=1.5,
tm=.true.
/
6
6S  1  0  2.00  0.00  2.00  2.10  0.0
6S  1  0  0.00  2.30  1.70  2.10  0.0
6P  2  1  0.00  0.00  2.10  2.30  0.0
6P  2  1  0.00  8.00  1.80  2.30  0.0
5D  3  2 10.00  0.00  1.80  2.20  0.0
5D  3  2  0.00  4.30  1.80  2.20  0.0
    </PP_INPUTFILE>
  </PP_INFO>
    <!-- END OF HUMAN READABLE SECTION -->
  <PP_HEADER generated="Generated using 'atomic' code by A. Dal Corso  v.7.2" author="ADC" date="20Sep2023" comment="" element="Hg" pseudo_type="USPP" relativistic="full" is_ultrasoft="true" is_paw="false" is_coulomb="false" has_so="true" has_wfc="false" has_gipaw="false" paw_as_gipaw="false" core_correction="true" functional="PBE" z_valence="12.000000000000000" total_psenergy="-105.89316701448780" wfc_cutoff="30.181490011609892" rho_cutoff="120.72596004643957" l_max="2" l_max_rho="4" l_local="-1" mesh_size="1279" number_of_wfc="5" number_of_proj="10"/>
  <PP_MESH mesh="1279" dx="1.2500000000000001E-002" xmin="-7.0000000000000000" rmax="100.00000000000000" zmesh="80.000000000000000">
    <PP_R>
   1.139852456943145E-05   1.154190035836278E-05   1.168707959270728E-05
   1.183408495701567E-05   1.198293942117525E-05   1.213366624399886E-05
   1.228628897685923E-05   1.244083146736889E-05   1.259731786310638E-05
   1.275577261538943E-05   1.291622048309546E-05   1.307868653653023E-05
   1.324319616134513E-05   1.340977506250371E-05   1.357844926829822E-05
   1.374924513441648E-05   1.392218934806004E-05   1.409730893211415E-05
   1.427463124937009E-05   1.445418400680072E-05   1.463599525988968E-05
   1.482009341701516E-05   1.500650724388876E-05   1.519526586805018E-05
   1.538639878341851E-05   1.557993585490062E-05   1.577590732305768E-05
   1.597434380883031E-05   1.617527631832310E-05   1.637873624764950E-05
   1.658475538783739E-05   1.679336592979659E-05   1.700460046934867E-05
   1.721849201232021E-05   1.743507397969999E-05   1.765438021286102E-05
   1.787644497884843E-05   1.810130297573370E-05   1.832898933803629E-05
   1.855953964221358E-05   1.879298991221966E-05   1.902937662513415E-05
   1.926873671686188E-05   1.951110758790415E-05   1.975652710920271E-05
   2.000503362805705E-05   2.025666597411633E-05   2.051146346544658E-05
   2.076946591467418E-05   2.103071363520677E-05   2.129524744753218E-05
   2.156310868559678E-05   2.183433920326400E-05   2.210898138085401E-05
   2.238707813176587E-05   2.266867290918269E-05   2.295380971286134E-05
   2.324253309600751E-05   2.353488817223722E-05   2.383092062262596E-05
   2.413067670284637E-05   2.443420325039584E-05   2.474154769191496E-05
   2.505275805059799E-05   2.536788295369667E-05   2.568697164011824E-05
   2.601007396811912E-05   2.633724042309543E-05   2.666852212547135E-05
   2.700397083868693E-05   2.734363897728606E-05   2.768757961510646E-05
   2.803584649357254E-05   2.838849403009258E-05   2.874557732656170E-05
   2.910715217797142E-05   2.947327508112791E-05   2.984400324347967E-05
   3.021939459205629E-05   3.059950778251979E-05   3.098440220832948E-05
   3.137413801002248E-05   3.176877608461073E-05   3.216837809509625E-05
   3.257300648010623E-05   3.298272446364902E-05   3.339759606499313E-05
   3.381768610867033E-05   3.424306023460461E-05   3.467378490836860E-05
   3.510992743156891E-05   3.555155595236209E-05   3.599873947610304E-05
   3.645154787612710E-05   3.691005190466808E-05   3.737432320391326E-05
   3.784443431719769E-05   3.832045870033929E-05   3.880247073311636E-05
   3.929054573088976E-05   3.978475995637083E-05   4.028519063153783E-05
   4.079191594970185E-05   4.130501508772478E-05   4.182456821839090E-05
   4.235065652293390E-05   4.288336220372168E-05   4.342276849710067E-05
   4.396895968640161E-05   4.452202111510912E-05   4.508203920019663E-05
   4.564910144562929E-05   4.622329645603665E-05   4.680471395055725E-05
   4.739344477685760E-05   4.798958092532705E-05   4.859321554345163E-05
   4.920444295036854E-05   4.982335865160363E-05   5.045005935399448E-05
   5.108464298080083E-05   5.172720868700546E-05   5.237785687480724E-05
   5.303668920930925E-05   5.370380863440425E-05   5.437931938885961E-05
   5.506332702260508E-05   5.575593841322502E-05   5.645726178265833E-05
   5.716740671410841E-05   5.788648416916557E-05   5.861460650514514E-05
   5.935188749264347E-05   6.009844233331482E-05   6.085438767787204E-05
   6.161984164431314E-05   6.239492383637772E-05   6.317975536223518E-05
   6.397445885340814E-05   6.477915848393406E-05   6.559397998976731E-05
   6.641905068842594E-05   6.725449949888525E-05   6.810045696172156E-05
   6.895705525950964E-05   6.982442823747624E-05   7.070271142441385E-05
   7.159204205385732E-05   7.249255908552677E-05   7.340440322704066E-05
   7.432771695590118E-05   7.526264454175699E-05   7.620933206894548E-05
   7.716792745931876E-05   7.813858049535701E-05   7.912144284357183E-05
   8.011666807820479E-05   8.112441170522359E-05   8.214483118662016E-05
   8.317808596501467E-05   8.422433748856834E-05   8.528374923621034E-05
   8.635648674318165E-05   8.744271762690013E-05   8.854261161315157E-05
   8.965634056260874E-05   9.078407849768614E-05   9.192600162973045E-05
   9.308228838655422E-05   9.425311944031595E-05   9.543867773574952E-05
   9.663914851875088E-05   9.785471936532217E-05   9.908558021088118E-05
   1.003319233799395E-04   1.015939436161526E-04   1.028718381127504E-04
   1.041658065433476E-04   1.054760510931441E-04   1.068027764905168E-04
   1.081461900390079E-04   1.095065016497179E-04   1.108839238741032E-04
   1.122786719371890E-04   1.136909637711978E-04   1.151210200496017E-04
   1.165690642216041E-04   1.180353225470526E-04   1.195200241317938E-04
   1.210234009634712E-04   1.225456879477729E-04   1.240871229451377E-04
   1.256479468079198E-04   1.272284034180234E-04   1.288287397250094E-04
   1.304492057846813E-04   1.320900547981582E-04   1.337515431514366E-04
   1.354339304554519E-04   1.371374795866436E-04   1.388624567280288E-04
   1.406091314107958E-04   1.423777765564172E-04   1.441686685192953E-04
   1.459820871299432E-04   1.478183157387077E-04   1.496776412600453E-04
   1.515603542173512E-04   1.534667487883555E-04   1.553971228510887E-04
   1.573517780304250E-04   1.593310197452134E-04   1.613351572559984E-04
   1.633645037133435E-04   1.654193762067617E-04   1.675000958142603E-04
   1.696069876525117E-04   1.717403809276518E-04   1.739006089867202E-04
   1.760880093697467E-04   1.783029238624907E-04   1.805456985498485E-04
   1.828166838699278E-04   1.851162346688050E-04   1.874447102559715E-04
   1.898024744604743E-04   1.921898956877679E-04   1.946073469772761E-04
   1.970552060606811E-04   1.995338554209453E-04   2.020436823520734E-04
   2.045850790196304E-04   2.071584425220157E-04   2.097641749525120E-04
   2.124026834621136E-04   2.150743803231423E-04   2.177796829936689E-04
   2.205190141827395E-04   2.232928019164254E-04   2.261014796047039E-04
   2.289454861091772E-04   2.318252658116486E-04   2.347412686835551E-04
   2.376939503562782E-04   2.406837721923366E-04   2.437112013574749E-04
   2.467767108936598E-04   2.498807797929929E-04   2.530238930725549E-04
   2.562065418501907E-04   2.594292234212468E-04   2.626924413362754E-04
   2.659967054797147E-04   2.693425321495597E-04   2.727304441380347E-04
   2.761609708132805E-04   2.796346482020700E-04   2.831520190735621E-04
   2.867136330241116E-04   2.903200465631447E-04   2.939718232001138E-04
   2.976695335325485E-04   3.014137553352109E-04   3.052050736503754E-04
   3.090440808792425E-04   3.129313768745018E-04   3.168675690340618E-04
   3.208532723959554E-04   3.248891097344418E-04   3.289757116573164E-04
   3.331137167044436E-04   3.373037714475311E-04   3.415465305911571E-04
   3.458426570750697E-04   3.501928221777728E-04   3.545977056214137E-04
   3.590579956779929E-04   3.635743892769059E-04   3.681475921138411E-04
   3.727783187610464E-04   3.774672927789813E-04   3.822152468293762E-04
   3.870229227897112E-04   3.918910718691361E-04   3.968204547258494E-04
   4.018118415859508E-04   4.068660123637929E-04   4.119837567838421E-04
   4.171658745040760E-04   4.224131752409320E-04   4.277264788958254E-04
   4.331066156832628E-04   4.385544262605630E-04   4.440707618592121E-04
   4.496564844178708E-04   4.553124667170530E-04   4.610395925155002E-04
   4.668387566882703E-04   4.727108653665636E-04   4.786568360793083E-04
   4.846775978965251E-04   4.907740915744977E-04   4.969472697027665E-04
   5.031980968529732E-04   5.095275497295778E-04   5.159366173224693E-04
   5.224263010614990E-04   5.289976149729540E-04   5.356515858380023E-04
   5.423892533531297E-04   5.492116702925928E-04   5.561199026729190E-04
   5.631150299194728E-04   5.701981450351175E-04   5.773703547710015E-04
   5.846327797994872E-04   5.919865548892616E-04   5.994328290826435E-04
   6.069727658751247E-04   6.146075433971698E-04   6.223383545982993E-04
   6.301664074334923E-04   6.380929250519302E-04   6.461191459881177E-04
   6.542463243554048E-04   6.624757300419475E-04   6.708086489091267E-04
   6.792463829924687E-04   6.877902507050908E-04   6.964415870437050E-04
   7.052017437972169E-04   7.140720897579412E-04   7.230540109354810E-04
   7.321489107732944E-04   7.413582103679840E-04   7.506833486913493E-04
   7.601257828152247E-04   7.696869881391530E-04   7.793684586209183E-04
   7.891717070099797E-04   7.990982650838447E-04   8.091496838874069E-04
   8.193275339753045E-04   8.296334056573205E-04   8.400689092468719E-04
   8.506356753126274E-04   8.613353549332823E-04   8.721696199555458E-04
   8.831401632553703E-04   8.942486990024652E-04   9.054969629281432E-04
   9.168867125965267E-04   9.284197276791739E-04   9.400978102331554E-04
   9.519227849826290E-04   9.638964996039589E-04   9.760208250144146E-04
   9.882976556645085E-04   1.000728909834007E-03   1.013316529931665E-03
   1.026062482798735E-03   1.038968760016282E-03   1.052037378216380E-03
   1.065270379397211E-03   1.078669831242131E-03   1.092237827442755E-03
   1.105976488026091E-03   1.119887959685809E-03   1.133974416117657E-03
   1.148238058359111E-03   1.162681115133294E-03   1.177305843197209E-03
   1.192114527694371E-03   1.207109482511861E-03   1.222293050641876E-03
   1.237667604547829E-03   1.253235546535047E-03   1.268999309126139E-03
   1.284961355441080E-03   1.301124179582083E-03   1.317490307023304E-03
   1.334062295005453E-03   1.350842732935366E-03   1.367834242790612E-03
   1.385039479529175E-03   1.402461131504297E-03   1.420101920884547E-03
   1.437964604079155E-03   1.456051972168713E-03   1.474366851341282E-03
   1.492912103333995E-03   1.511690625880209E-03   1.530705353162274E-03
   1.549959256270016E-03   1.569455343664966E-03   1.589196661650445E-03
   1.609186294847553E-03   1.629427366677146E-03   1.649923039847878E-03
   1.670676516850381E-03   1.691691040457659E-03   1.712969894231781E-03
   1.734516403036941E-03   1.756333933558977E-03   1.778425894831421E-03
   1.800795738768166E-03   1.823446960702843E-03   1.846383099934961E-03
   1.869607740282939E-03   1.893124510644083E-03   1.916937085561606E-03
   1.941049185798788E-03   1.965464578920346E-03   1.990187079881130E-03
   2.015220551622211E-03   2.040568905674480E-03   2.066236102769832E-03
   2.092226153460032E-03   2.118543118743378E-03   2.145191110699236E-03
   2.172174293130564E-03   2.199496882214519E-03   2.227163147161231E-03
   2.255177410880886E-03   2.283544050659185E-03   2.312267498841304E-03
   2.341352243524463E-03   2.370802829259192E-03   2.400623857759428E-03
   2.430819988621546E-03   2.461395940052426E-03   2.492356489606690E-03
   2.523706474933193E-03   2.555450794530926E-03   2.587594408514410E-03
   2.620142339388723E-03   2.653099672834289E-03   2.686471558501508E-03
   2.720263210815413E-03   2.754479909790425E-03   2.789127001855373E-03
   2.824209900688886E-03   2.859734088065281E-03   2.895705114711111E-03
   2.932128601172473E-03   2.969010238693227E-03   3.006355790104277E-03
   3.044171090724010E-03   3.082462049270083E-03   3.121234648782671E-03
   3.160494947559331E-03   3.200249080101626E-03   3.240503258073645E-03
   3.281263771272593E-03   3.322536988611585E-03   3.364329359114798E-03
   3.406647412925158E-03   3.449497762324665E-03   3.492887102767593E-03
   3.536822213926663E-03   3.581309960752376E-03   3.626357294545692E-03
   3.671971254044162E-03   3.718158966521759E-03   3.764927648902529E-03
   3.812284608888241E-03   3.860237246100249E-03   3.908793053235673E-03
   3.957959617238167E-03   4.007744620483386E-03   4.058155841979372E-03
   4.109201158582052E-03   4.160888546225996E-03   4.213226081170681E-03
   4.266221941262425E-03   4.319884407212182E-03   4.374221863889443E-03
   4.429242801632360E-03   4.484955817574398E-03   4.541369616987643E-03
   4.598493014643029E-03   4.656334936187663E-03   4.714904419539463E-03
   4.774210616299364E-03   4.834262793181269E-03   4.895070333459988E-03
   4.956642738437412E-03   5.018989628927085E-03   5.082120746757492E-03
   5.146045956294235E-03   5.210775245981355E-03   5.276318729902070E-03
   5.342686649359085E-03   5.409889374474844E-03   5.477937405811870E-03
   5.546841376013498E-03   5.616612051465271E-03   5.687260333977171E-03
   5.758797262487076E-03   5.831234014785609E-03   5.904581909262683E-03
   5.978852406676052E-03   6.054057111942033E-03   6.130207775948830E-03
   6.207316297392624E-03   6.285394724636762E-03   6.364455257594366E-03
   6.444510249634554E-03   6.525572209512704E-03   6.607653803324971E-03
   6.690767856487379E-03   6.774927355739840E-03   6.860145451175333E-03
   6.946435458294646E-03   7.033810860086952E-03   7.122285309136537E-03
   7.211872629756084E-03   7.302586820146700E-03   7.394442054585193E-03
   7.487452685638822E-03   7.581633246407917E-03   7.676998452796724E-03
   7.773563205812755E-03   7.871342593895129E-03   7.970351895272173E-03
   8.070606580348650E-03   8.172122314123093E-03   8.274914958635428E-03
   8.379000575445496E-03   8.484395428142685E-03   8.591115984887153E-03
   8.699178920983026E-03   8.808601121483921E-03   8.919399683831286E-03
   9.031591920525908E-03   9.145195361833022E-03   9.260227758521474E-03
   9.376707084637276E-03   9.494651540312111E-03   9.614079554607139E-03
   9.735009788392561E-03   9.857461137263459E-03   9.981452734492215E-03
   1.010700395401816E-02   1.023413441347478E-02   1.036286397725500E-02
   1.049321275961509E-02   1.062520112781748E-02   1.075884970531323E-02
   1.089417937496448E-02   1.103121128230744E-02   1.116996683885645E-02
   1.131046772544950E-02   1.145273589563598E-02   1.159679357910692E-02
   1.174266328516845E-02   1.189036780625893E-02   1.203993022151028E-02
   1.219137390035416E-02   1.234472250617353E-02   1.250000000000000E-02
   1.265723064425793E-02   1.281643900655537E-02   1.297764996352282E-02
   1.314088870470031E-02   1.330618073647324E-02   1.347355188605790E-02
   1.364302830553690E-02   1.381463647594560E-02   1.398840321140977E-02
   1.416435566333533E-02   1.434252132465091E-02   1.452292803410354E-02
   1.470560398060864E-02   1.489057770765449E-02   1.507787811776226E-02
   1.526753447700213E-02   1.545957641956607E-02   1.565403395239831E-02
   1.585093745988400E-02   1.605031770859677E-02   1.625220585210614E-02
   1.645663343584527E-02   1.666363240204004E-02   1.687323509470005E-02
   1.708547426467245E-02   1.730038307475940E-02   1.751799510489967E-02
   1.773834435741573E-02   1.796146526232657E-02   1.818739268272752E-02
   1.841616192023770E-02   1.864780872051588E-02   1.888236927884592E-02
   1.911988024579225E-02   1.936037873292666E-02   1.960390231862711E-02
   1.985048905394930E-02   2.010017746857230E-02   2.035300657681889E-02
   2.060901588375160E-02   2.086824539134554E-02   2.113073560473865E-02
   2.139652753856082E-02   2.166566272334245E-02   2.193818321200373E-02
   2.221413158642548E-02   2.249355096410261E-02   2.277648500488138E-02
   2.306297791778126E-02   2.335307446790278E-02   2.364681998342213E-02
   2.394426036267371E-02   2.424544208132194E-02   2.455041219962311E-02
   2.485921836977865E-02   2.517190884338096E-02   2.548853247895270E-02
   2.580913874958109E-02   2.613377775064821E-02   2.646250020765844E-02
   2.679535748416450E-02   2.713240158979304E-02   2.747368518837129E-02
   2.781926160615587E-02   2.816918484016511E-02   2.852350956661630E-02
   2.888229114946881E-02   2.924558564907490E-02   2.961344983093927E-02
   2.998594117458873E-02   3.036311788255361E-02   3.074503888946188E-02
   3.113176387124790E-02   3.152335325447687E-02   3.191986822578659E-02
   3.232137074144809E-02   3.272792353704627E-02   3.313959013728260E-02
   3.355643486590090E-02   3.397852285573806E-02   3.440592005890134E-02
   3.483869325707314E-02   3.527691007194624E-02   3.572063897578957E-02
   3.616994930214702E-02   3.662491125667131E-02   3.708559592809336E-02
   3.755207529933040E-02   3.802442225873332E-02   3.850271061147539E-02
   3.898701509108495E-02   3.947741137112211E-02   3.997397607700343E-02
   4.047678679797454E-02   4.098592209923342E-02   4.150146153420689E-02
   4.202348565698038E-02   4.255207603488522E-02   4.308731526124347E-02
   4.362928696827302E-02   4.417807584015591E-02   4.473376762626975E-02
   4.529644915458676E-02   4.586620834524058E-02   4.644313422426380E-02
   4.702731693749893E-02   4.761884776468328E-02   4.821781913371216E-02
   4.882432463508068E-02   4.943845903650722E-02   5.006031829774162E-02
   5.068999958555846E-02   5.132760128894014E-02   5.197322303445014E-02
   5.262696570179950E-02   5.328893143961028E-02   5.395922368137555E-02
   5.463794716162196E-02   5.532520793227422E-02   5.602111337922581E-02
   5.672577223911884E-02   5.743929461633362E-02   5.816179200019336E-02
   5.889337728238431E-02   5.963416477459503E-02   6.038427022637854E-02
   6.114381084323758E-02   6.191290530493891E-02   6.269167378405703E-02
   6.348023796475102E-02   6.427872106177865E-02   6.508724783974813E-02
   6.590594463261362E-02   6.673493936341475E-02   6.757436156426458E-02
   6.842434239659007E-02   6.928501467162530E-02   7.015651287116444E-02
   7.103897316857435E-02   7.193253345007164E-02   7.283733333626849E-02
   7.375351420398772E-02   7.468121920835402E-02   7.562059330516188E-02
   7.657178327352483E-02   7.753493773881090E-02   7.851020719586457E-02
   7.949774403252287E-02   8.049770255342580E-02   8.151023900412641E-02
   8.253551159550543E-02   8.357368052849090E-02   8.462490801909092E-02
   8.568935832373978E-02   8.676719776496294E-02   8.785859475736627E-02
   8.896371983394996E-02   9.008274567275582E-02   9.121584712384796E-02
   9.236320123663314E-02   9.352498728752608E-02   9.470138680796061E-02
   9.589258361275535E-02   9.709876382883473E-02   9.832011592431114E-02
   9.955683073793475E-02   1.008091015089109E-01   1.020771239070956E-01
   1.033610960635684E-01   1.046612186015908E-01   1.059776946679548E-01
   1.073107299647237E-01   1.086605327813750E-01   1.100273140273452E-01
   1.114112872649842E-01   1.128126687429266E-01   1.142316774298791E-01
   1.156685350488361E-01   1.171234661117242E-01   1.185966979544816E-01
   1.200884607725814E-01   1.215989876569986E-01   1.231285146306323E-01
   1.246772806851841E-01   1.262455278185007E-01   1.278335010723876E-01
   1.294414485708962E-01   1.310696215590946E-01   1.327182744423251E-01
   1.343876648259544E-01   1.360780535556269E-01   1.377897047580200E-01
   1.395228858821171E-01   1.412778677409949E-01   1.430549245541390E-01
   1.448543339902925E-01   1.466763772108402E-01   1.485213389137424E-01
   1.503895073780192E-01   1.522811745087934E-01   1.541966358829033E-01
   1.561361907950852E-01   1.581001423047403E-01   1.600887972832880E-01
   1.621024664621142E-01   1.641414644811254E-01   1.662061099379099E-01
   1.682967254375214E-01   1.704136376428846E-01   1.725571773258387E-01
   1.747276794188206E-01   1.769254830671976E-01   1.791509316822619E-01
   1.814043729948866E-01   1.836861591098618E-01   1.859966465609106E-01
   1.883361963663974E-01   1.907051740857398E-01   1.931039498765253E-01
   1.955328985523521E-01   1.979923996413929E-01   2.004828374456959E-01
   2.030046011012357E-01   2.055580846387133E-01   2.081436870451268E-01
   2.107618123261131E-01   2.134128695690733E-01   2.160972730070958E-01
   2.188154420836786E-01   2.215678015182705E-01   2.243547813726332E-01
   2.271768171180383E-01   2.300343497033134E-01   2.329278256237377E-01
   2.358576969908110E-01   2.388244216028959E-01   2.418284630167477E-01
   2.448702906199502E-01   2.479503797042542E-01   2.510692115398458E-01
   2.542272734505454E-01   2.574250588899504E-01   2.606630675185430E-01
   2.639418052817578E-01   2.672617844890418E-01   2.706235238939009E-01
   2.740275487749559E-01   2.774743910180208E-01   2.809645891992078E-01
   2.844986886690841E-01   2.880772416378825E-01   2.917008072617840E-01
   2.953699517302906E-01   2.990852483546894E-01   3.028472776576372E-01
   3.066566274638672E-01   3.105138929920356E-01   3.144196769477300E-01
   3.183745896176387E-01   3.223792489649133E-01   3.264342807257249E-01
   3.305403185070350E-01   3.346980038856019E-01   3.389079865082238E-01
   3.431709241932512E-01   3.474874830333711E-01   3.518583374996832E-01
   3.562841705470915E-01   3.607656737210129E-01   3.653035472654368E-01
   3.698985002323373E-01   3.745512505924628E-01   3.792625253475245E-01
   3.840330606437867E-01   3.888636018870958E-01   3.937549038593496E-01
   3.987077308364312E-01   4.037228567076340E-01   4.088010650965772E-01
   4.139431494836539E-01   4.191499133300121E-01   4.244221702030944E-01
   4.297607439037653E-01   4.351664685950256E-01   4.406401889323567E-01
   4.461827601956989E-01   4.517950484230867E-01   4.574779305459755E-01
   4.632322945262574E-01   4.690590394950125E-01   4.749590758929975E-01
   4.809333256129017E-01   4.869827221434003E-01   4.931082107150069E-01
   4.993107484477742E-01   5.055913045008429E-01   5.119508602238725E-01
   5.183904093103852E-01   5.249109579530251E-01   5.315135250007847E-01
   5.381991421181995E-01   5.449688539465438E-01   5.518237182670661E-01
   5.587648061662607E-01   5.657932022032346E-01   5.729100045791690E-01
   5.801163253089122E-01   5.874132903947419E-01   5.948020400022963E-01
   6.022837286387352E-01   6.098595253331307E-01   6.175306138191273E-01
   6.252981927199102E-01   6.331634757354834E-01   6.411276918323213E-01
   6.491920854353936E-01   6.573579166226057E-01   6.656264613216962E-01
   6.739990115095946E-01   6.824768754143029E-01   6.910613777193061E-01
   6.997538597705519E-01   7.085556797860484E-01   7.174682130680780E-01
   7.264928522180998E-01   7.356310073543433E-01   7.448841063321374E-01
   7.542535949670257E-01   7.637409372606672E-01   7.733476156295985E-01
   7.830751311368614E-01   7.929250037265418E-01   8.028987724612744E-01
   8.129979957627127E-01   8.232242516550462E-01   8.335791380115651E-01
   8.440642728043268E-01   8.546812943569778E-01   8.654318616007330E-01
   8.763176543335982E-01   8.873403734828367E-01   8.985017413707383E-01
   9.098035019837468E-01   9.212474212449481E-01   9.328352872900114E-01
   9.445689107465836E-01   9.564501250171986E-01   9.684807865657621E-01
   9.806627752076145E-01   9.929979944032666E-01   1.005488371555816E+00
   1.018135858312102E+00   1.030942430867664E+00   1.043910090275516E+00
   1.057040862758825E+00   1.070336800027508E+00   1.083799979598811E+00
   1.097432505121936E+00   1.111236506706729E+00   1.125214141256523E+00
   1.139367592805156E+00   1.153699072858223E+00   1.168210820738647E+00
   1.182905103936552E+00   1.197784218463586E+00   1.212850489211668E+00
   1.228106270316251E+00   1.243553945524174E+00   1.259195928566114E+00
   1.275034663533746E+00   1.291072625261636E+00   1.307312319713928E+00
   1.323756284375925E+00   1.340407088650557E+00   1.357267334259870E+00
   1.374339655651545E+00   1.391626720410529E+00   1.409131229675867E+00
   1.426855918562738E+00   1.444803556589846E+00   1.462976948112149E+00
   1.481378932759042E+00   1.500012385878069E+00   1.518880218984187E+00
   1.537985380214707E+00   1.557330854789943E+00   1.576919665479652E+00
   1.596754873075363E+00   1.616839576868612E+00   1.637176915135232E+00
   1.657770065625708E+00   1.678622246061694E+00   1.699736714638814E+00
   1.721116770535734E+00   1.742765754429690E+00   1.764687049018463E+00
   1.786884079548925E+00   1.809360314352264E+00   1.832119265385890E+00
   1.855164488782207E+00   1.878499585404262E+00   1.902128201408370E+00
   1.926054028813861E+00   1.950280806079939E+00   1.974812318689843E+00
   1.999652399742333E+00   2.024804930550604E+00   2.050273841248775E+00
   2.076063111405952E+00   2.102176770648068E+00   2.128618899287514E+00
   2.155393628960679E+00   2.182505143273556E+00   2.209957678455406E+00
   2.237755524020709E+00   2.265903023439392E+00   2.294404574815500E+00
   2.323264631574429E+00   2.352487703158756E+00   2.382078355732875E+00
   2.412041212896457E+00   2.442380956406887E+00   2.473102326910822E+00
   2.504210124684898E+00   2.535709210385811E+00   2.567604505809792E+00
   2.599900994661633E+00   2.632603723333435E+00   2.665717801693076E+00
   2.699248403882677E+00   2.733200769127052E+00   2.767580202552339E+00
   2.802392076014966E+00   2.837641828940976E+00   2.873334969175986E+00
   2.909477073845779E+00   2.946073790227733E+00   2.983130836633248E+00
   3.020654003301209E+00   3.058649153302755E+00   3.097122223457379E+00
   3.136079225260557E+00   3.175526245823091E+00   3.215469448822187E+00
   3.255915075464585E+00   3.296869445461740E+00   3.338338958017277E+00
   3.380330092826912E+00   3.422849411090882E+00   3.465903556539175E+00
   3.509499256469619E+00   3.553643322799012E+00   3.598342653127542E+00
   3.643604231816502E+00   3.689435131079654E+00   3.735842512088257E+00
   3.782833626089998E+00   3.830415815542057E+00   3.878596515258330E+00
   3.927383253571178E+00   3.976783653507726E+00   4.026805433980956E+00
   4.077456410995854E+00   4.128744498870612E+00   4.180677711473313E+00
   4.233264163474095E+00   4.286512071613055E+00   4.340429755984188E+00
   4.395025641335360E+00   4.450308258384739E+00   4.506286245153722E+00
   4.562968348316611E+00   4.620363424567365E+00   4.678480442003402E+00
   4.737328481526944E+00   4.796916738263903E+00   4.857254523000610E+00
   4.918351263638706E+00   4.980216506668199E+00   5.042859918659189E+00
   5.106291287772256E+00   5.170520525287860E+00   5.235557667155054E+00
   5.301412875559557E+00   5.368096440511674E+00   5.435618781454108E+00
   5.503990448889986E+00   5.573222126031469E+00   5.643324630468944E+00
   5.714308915861362E+00   5.786186073647745E+00   5.858967334780212E+00
   5.932664071478912E+00   6.007287799008867E+00   6.082850177479340E+00
   6.159363013665709E+00   6.236838262854276E+00   6.315288030710368E+00
   6.394724575169803E+00   6.475160308354274E+00   6.556607798510756E+00
   6.639079771975264E+00   6.722589115161467E+00   6.807148876574118E+00
   6.892772268847985E+00   6.979472670812325E+00   7.067263629581315E+00
   7.156158862670898E+00   7.246172260142080E+00   7.337317886771361E+00
   7.429609984248353E+00   7.523062973401028E+00   7.617691456449101E+00
   7.713510219285546E+00   7.810534233787012E+00   7.908778660153176E+00
   8.008258849275510E+00   8.108990345135988E+00   8.210988887235747E+00
   8.314270413054523E+00   8.418851060540868E+00   8.524747170633693E+00
   8.631975289815680E+00   8.740552172698573E+00   8.850494784641242E+00
   8.961820304400499E+00   9.074546126815267E+00   9.188689865524674E+00
   9.304269355720088E+00   9.421302656932017E+00   9.539808055851896E+00
   9.659804069189374E+00   9.781309446565707E+00   9.904343173443277E+00
   1.002892447409224E+01   1.015507281459430E+01   1.028280790588428E+01
   1.041214970683011E+01   1.054311842735129E+01   1.067573453157689E+01
   1.081001874104302E+01   1.094599203793057E+01   1.108367566834387E+01
   1.122309114563023E+01   1.136426025374165E+01   1.150720505063851E+01
   1.165194787173610E+01   1.179851133339475E+01   1.194691833645347E+01
   1.209719206980846E+01   1.224935601403630E+01   1.240343394506283E+01
   1.255944993787827E+01   1.271742837029889E+01   1.287739392677617E+01