<UPF version="2.0.1">
  <PP_INFO>
    Generated using "atomic" code by A. Dal Corso  v.7.2
    Author: ADC
    Generation date: 20Sep2023
    Pseudopotential type: USPP
    Element: Pb
    Functional: PBE
    Suggested minimum cutoff for wavefunctions:  41. Ry
    Suggested minimum cutoff for charge density: 166. Ry
    The Pseudo was generated with a Fully-Relativistic Calculation
    Local Potential by smoothing AE potential with Bessel fncs, cutoff radius:   2.2000
    Pseudopotential contains additional information for spin-orbit calculations.
    Valence configuration: 
    nl pn  l   occ       Rcut    Rcut US       E pseu
    6S  1  0  2.00      2.000      2.200    -0.825746
    6P  2  1  2.00      2.400      2.600    -0.293354
    6P  2  1  0.00      2.400      2.600    -0.192694
    5D  3  2  4.00      1.600      2.100    -1.589381
    5D  3  2  6.00      1.600      2.100    -1.400191
    Generation configuration:
    6S  1  0  2.00      2.000      2.200    -0.825744
    6S  1  0  0.00      2.000      2.200     5.000000
    6P  2  1  2.00      2.400      2.600    -0.293354
    6P  2  1  0.00      2.400      2.600    -0.192693
    6P  2  1  0.00      2.400      2.600     6.500000
    6P  2  1  0.00      2.400      2.600     6.500000
    5D  3  2  4.00      1.600      2.100    -1.589381
    5D  3  2  6.00      1.600      2.100    -1.400190
    5D  3  2  0.00      1.600      2.100    -0.900000
    5D  3  2  0.00      1.600      2.100    -0.900000
    Pseudization used: troullier-martins
    <PP_INPUTFILE>
@input
title='Pb',
zed=82.0,
rel=2,
config='[Xe] 4f14 5d10 6s2 6p2',
iswitch=3,
dft='PBE'
/
@inputp
pseudotype=3,
file_pseudopw='Pb.rel-pbe-dn-rrkjus_psl.0.2.2.UPF',
author='ADC',
lloc=-1,
rcloc=2.2,
which_augfun='PSQ',
rmatch_augfun=1.6,
nlcc=.true.,
new_core_ps=.true.,
rcore=1.4,
tm=.true.
/
6
6S  1  0  2.00  0.00  2.00  2.20  0.0
6S  1  0  0.00  5.00  2.00  2.20  0.0
6P  2  1  2.00  0.00  2.40  2.60  0.0
6P  2  1  0.00  6.50  2.40  2.60  0.0
5D  3  2 10.00  0.00  1.60  2.10  0.0
5D  3  2  0.00 -0.90  1.60  2.10  0.0
    </PP_INPUTFILE>
  </PP_INFO>
    <!-- END OF HUMAN READABLE SECTION -->
  <PP_HEADER generated="Generated using 'atomic' code by A. Dal Corso  v.7.2" author="ADC" date="20Sep2023" comment="" element="Pb" pseudo_type="USPP" relativistic="full" is_ultrasoft="true" is_paw="false" is_coulomb="false" has_so="true" has_wfc="false" has_gipaw="false" paw_as_gipaw="false" core_correction="true" functional="PBE" z_valence="14.000000000000000" total_psenergy="-145.18542147140352" wfc_cutoff="41.053410731892995" rho_cutoff="165.81297119828128" l_max="2" l_max_rho="4" l_local="-1" mesh_size="1281" number_of_wfc="5" number_of_proj="10"/>
  <PP_MESH mesh="1281" dx="1.2500000000000001E-002" xmin="-7.0000000000000000" rmax="100.00000000000000" zmesh="82.000000000000000">
    <PP_R>
   1.112051177505508E-05   1.126039059352466E-05   1.140202887093393E-05
   1.154544873855188E-05   1.169067260602463E-05   1.183772316487694E-05
   1.198662339205779E-05   1.213739655353063E-05   1.229006620790866E-05
   1.244465621013603E-05   1.260119071521509E-05   1.275969418198071E-05
   1.292019137692207E-05   1.308270737805240E-05   1.324726757882753E-05
   1.341389769211364E-05   1.358262375420492E-05   1.375347212889186E-05
   1.392646951158058E-05   1.410164293346412E-05   1.427901976574603E-05
   1.445862772391723E-05   1.464049487208660E-05   1.482464962736603E-05
   1.501112076431074E-05   1.519993741941524E-05   1.539112909566603E-05
   1.558472566715152E-05   1.578075738372985E-05   1.597925487575561E-05
   1.618024915886575E-05   1.638377163882594E-05   1.658985411643773E-05
   1.679852879250752E-05   1.700982827287803E-05   1.722378557352295E-05
   1.744043412570578E-05   1.765980778120361E-05   1.788194081759638E-05
   1.810686794362301E-05   1.833462430460454E-05   1.856524548793575E-05
   1.879876752864573E-05   1.903522691502844E-05   1.927466059434411E-05
   1.951710597859225E-05   1.976260095035740E-05   2.001118386872837E-05
   2.026289357529188E-05   2.051776940020172E-05   2.077585116832407E-05
   2.103717920546027E-05   2.130179434464780E-05   2.156973793254050E-05
   2.184105183586914E-05   2.211577844798311E-05   2.239396069547448E-05
   2.267564204488538E-05   2.296086650949972E-05   2.324967865622044E-05
   2.354212361253304E-05   2.383824707355692E-05   2.413809530918533E-05
   2.444171517131511E-05   2.474915410116749E-05   2.506046013670072E-05
   2.537568192011621E-05   2.569486870545895E-05   2.601807036631351E-05
   2.634533740359701E-05   2.667672095344982E-05   2.701227279522582E-05
   2.735204535958297E-05   2.769609173667569E-05   2.804446568445044E-05
   2.839722163704529E-05   2.875441471329552E-05   2.911610072534602E-05
   2.948233618737199E-05   2.985317832440955E-05   3.022868508129705E-05
   3.060891513172925E-05   3.099392788742510E-05   3.138378350741098E-05
   3.177854290742071E-05   3.217826776941368E-05   3.258302055121281E-05
   3.299286449626374E-05   3.340786364351669E-05   3.382808283743279E-05
   3.425358773811601E-05   3.468444483157278E-05   3.512072144010053E-05
   3.556248573280693E-05   3.600980673626154E-05   3.646275434528122E-05
   3.692139933385141E-05   3.738581336618468E-05   3.785606900791840E-05
   3.833223973745342E-05   3.881439995743496E-05   3.930262500637837E-05
   3.979699117044083E-05   4.029757569534124E-05   4.080445679843015E-05
   4.131771368091112E-05   4.183742654021627E-05   4.236367658253724E-05
   4.289654603551376E-05   4.343611816108207E-05   4.398247726848452E-05
   4.453570872744321E-05   4.509589898149917E-05   4.566313556151927E-05
   4.623750709937327E-05   4.681910334178249E-05   4.740801516434305E-05
   4.800433458572541E-05   4.860815478205232E-05   4.921957010145803E-05
   4.983867607883008E-05   5.046556945073703E-05   5.110034817054365E-05
   5.174311142371635E-05   5.239395964332122E-05   5.305299452571670E-05
   5.372031904644398E-05   5.439603747631709E-05   5.508025539771544E-05
   5.577307972108138E-05   5.647461870162495E-05   5.718498195623916E-05
   5.790428048062778E-05   5.863262666664860E-05   5.937013431987516E-05
   6.011691867737868E-05   6.087309642573435E-05   6.163878571925383E-05
   6.241410619844697E-05   6.319917900871615E-05   6.399412681928517E-05
   6.479907384236678E-05   6.561414585257099E-05   6.643947020655761E-05
   6.727517586293624E-05   6.812139340241585E-05   6.897825504820863E-05
   6.984589468669006E-05   7.072444788831880E-05   7.161405192882014E-05
   7.251484581063529E-05   7.342697028464096E-05   7.435056787214192E-05
   7.528578288714026E-05   7.623276145888489E-05   7.719165155470423E-05
   7.816260300312663E-05   7.914576751729130E-05   8.014129871865382E-05
   8.114935216098992E-05   8.217008535470081E-05   8.320365779142472E-05
   8.425023096895771E-05   8.530996841648793E-05   8.638303572014787E-05
   8.746960054888657E-05   8.856983268066941E-05   8.968390402900532E-05
   9.081198866980901E-05   9.195426286860093E-05   9.311090510804832E-05
   9.428209611585452E-05   9.546801889299723E-05   9.666885874232310E-05
   9.788480329750196E-05   9.911604255234403E-05   1.003627688904882E-04
   1.016251771154611E-04   1.029034644811162E-04   1.041978307224554E-04
   1.055084780868370E-04   1.068356113655784E-04   1.081794379259544E-04
   1.095401677435990E-04   1.109180134353149E-04   1.123131902922944E-04
   1.137259163137601E-04   1.151564122410270E-04   1.166049015919940E-04
   1.180716106960694E-04   1.195567687295345E-04   1.210606077513538E-04
   1.225833627394340E-04   1.241252716273399E-04   1.256865753414726E-04
   1.272675178387135E-04   1.288683461445446E-04   1.304893103916455E-04
   1.321306638589775E-04   1.337926630113596E-04   1.354755675395403E-04
   1.371796404007764E-04   1.389051478599192E-04   1.406523595310198E-04
   1.424215484194567E-04   1.442129909645929E-04   1.460269670829710E-04
   1.478637602120500E-04   1.497236573544931E-04   1.516069491230133E-04
   1.535139297857805E-04   1.554448973124033E-04   1.574001534204863E-04
   1.593800036227742E-04   1.613847572748895E-04   1.634147276236686E-04
   1.654702318561089E-04   1.675515911489286E-04   1.696591307187515E-04
   1.717931798729236E-04   1.739540720609665E-04   1.761421449266814E-04
   1.783577403609052E-04   1.806012045549317E-04   1.828728880546063E-04
   1.851731458150969E-04   1.875023372563589E-04   1.898608263192938E-04
   1.922489815226157E-04   1.946671760204344E-04   1.971157876605594E-04
   1.995951990435418E-04   2.021057975824543E-04   2.046479755634263E-04
   2.072221302069401E-04   2.098286637298949E-04   2.124679834084575E-04
   2.151405016416971E-04   2.178466360160248E-04   2.205868093704428E-04
   2.233614498626119E-04   2.261709910357547E-04   2.290158718863953E-04
   2.318965369329543E-04   2.348134362852065E-04   2.377670257146097E-04
   2.407577667255217E-04   2.437861266273101E-04   2.468525786073706E-04
   2.499576018050641E-04   2.531016813865822E-04   2.562853086207565E-04
   2.595089809558192E-04   2.627732020971313E-04   2.660784820858875E-04
   2.694253373788103E-04   2.728142909288488E-04   2.762458722668899E-04
   2.797206175844992E-04   2.832390698177021E-04   2.868017787318184E-04
   2.904093010073644E-04   2.940622003270351E-04   2.977610474637809E-04
   3.015064203699927E-04   3.052989042678067E-04   3.091390917405481E-04
   3.130275828253224E-04   3.169649851067725E-04   3.209519138120160E-04
   3.249889919067742E-04   3.290768501927132E-04   3.332161274060069E-04
   3.374074703171412E-04   3.416515338319734E-04   3.459489810940622E-04
   3.503004835882858E-04   3.547067212457619E-04   3.591683825500889E-04
   3.636861646449233E-04   3.682607734429085E-04   3.728929237359768E-04
   3.775833393070353E-04   3.823327530430596E-04   3.871419070496092E-04
   3.920115527667813E-04   3.969424510866272E-04   4.019353724720410E-04
   4.069910970771473E-04   4.121104148692019E-04   4.172941257520248E-04
   4.225430396909881E-04   4.278579768395737E-04   4.332397676675240E-04
   4.386892530906057E-04   4.442072846020028E-04   4.497947244053660E-04
   4.554524455495320E-04   4.611813320649400E-04   4.669822791017642E-04
   4.728561930697806E-04   4.788039917799978E-04   4.848266045880648E-04
   4.909249725394860E-04   4.971000485166613E-04   5.033527973877749E-04
   5.096841961575600E-04   5.160952341199550E-04   5.225869130126852E-04
   5.291602471737851E-04   5.358162637000905E-04   5.425560026077259E-04
   5.493805169946076E-04   5.562908732049928E-04   5.632881509960991E-04
   5.703734437068168E-04   5.775478584285479E-04   5.848125161781887E-04
   5.921685520732924E-04   5.996171155094339E-04   6.071593703398042E-04
   6.147964950570656E-04   6.225296829774928E-04   6.303601424274319E-04
   6.382890969321022E-04   6.463177854067780E-04   6.544474623503675E-04
   6.626793980414328E-04   6.710148787366739E-04   6.794552068719072E-04
   6.880017012655774E-04   6.966556973248206E-04   7.054185472541278E-04
   7.142916202666288E-04   7.232763027980332E-04   7.323739987232676E-04
   7.415861295758289E-04   7.509141347699053E-04   7.603594718252860E-04
   7.699236165951022E-04   7.796080634964338E-04   7.894143257438116E-04
   7.993439355856630E-04   8.093984445437274E-04   8.195794236554848E-04
   8.298884637196366E-04   8.403271755446657E-04   8.508971902005325E-04
   8.616001592735320E-04   8.724377551243563E-04   8.834116711494080E-04
   8.945236220453919E-04   9.057753440772428E-04   9.171685953494198E-04
   9.287051560806138E-04   9.403868288819111E-04   9.522154390384532E-04
   9.641928347946425E-04   9.763208876429339E-04   9.886014926162590E-04
   1.001036568584132E-03   1.013628058552470E-03   1.026377929967200E-03
   1.039288175021669E-03   1.052360810967933E-03   1.065597880431956E-03
   1.079001451732772E-03   1.092573619205667E-03   1.106316503529421E-03
   1.120232252057670E-03   1.134323039154433E-03   1.148591066533862E-03
   1.163038563604264E-03   1.177667787816450E-03   1.192481025016464E-03
   1.207480589802760E-03   1.222668825887851E-03   1.238048106464525E-03
   1.253620834576664E-03   1.269389443494715E-03   1.285356397095907E-03
   1.301524190249222E-03   1.317895349205236E-03   1.334472431990841E-03
   1.351258028808951E-03   1.368254762443216E-03   1.385465288667851E-03
   1.402892296662591E-03   1.420538509432890E-03   1.438406684235397E-03
   1.456499613008776E-03   1.474820122809960E-03   1.493371076255877E-03
   1.512155371970747E-03   1.531175945038992E-03   1.550435767463849E-03
   1.569937848631759E-03   1.589685235782582E-03   1.609681014485735E-03
   1.629928309122323E-03   1.650430283373326E-03   1.671190140713933E-03
   1.692211124914089E-03   1.713496520545344E-03   1.735049653494069E-03
   1.756873891481138E-03   1.778972644588139E-03   1.801349365790205E-03
   1.824007551495550E-03   1.846950742091789E-03   1.870182522499128E-03
   1.893706522730525E-03   1.917526418458874E-03   1.941645931591346E-03
   1.966068830850938E-03   1.990798932365347E-03   2.015840100263251E-03
   2.041196247278080E-03   2.066871335359393E-03   2.092869376291937E-03
   2.119194432322502E-03   2.145850616794653E-03   2.172842094791445E-03
   2.200173083786230E-03   2.227847854301644E-03   2.255870730576882E-03
   2.284246091243378E-03   2.312978370008967E-03   2.342072056350661E-03
   2.371531696216142E-03   2.401361892734074E-03   2.431567306933356E-03
   2.462152658471408E-03   2.493122726371635E-03   2.524482349770156E-03
   2.556236428671925E-03   2.588389924716379E-03   2.620947861952691E-03
   2.653915327624793E-03   2.687297472966268E-03   2.721099514005242E-03
   2.755326732379401E-03   2.789984476161250E-03   2.825078160693767E-03
   2.860613269436559E-03   2.896595354822660E-03   2.933030039126124E-03
   2.969923015340497E-03   3.007280048068373E-03   3.045106974422119E-03
   3.083409704935933E-03   3.122194224489391E-03   3.161466593242581E-03
   3.201232947583017E-03   3.241499501084473E-03   3.282272545477852E-03
   3.323558451634301E-03   3.365363670560649E-03   3.407694734407408E-03
   3.450558257489427E-03   3.493960937319391E-03   3.537909555654334E-03
   3.582410979555280E-03   3.627472162460253E-03   3.673100145270760E-03
   3.719302057451942E-03   3.766085118146584E-03   3.813456637303096E-03
   3.861424016817724E-03   3.909994751691109E-03   3.959176431199387E-03
   4.008976740080051E-03   4.059403459732679E-03   4.110464469434811E-03
   4.162167747573097E-03   4.214521372889933E-03   4.267533525745798E-03
   4.321212489397425E-03   4.375566651292095E-03   4.430604504378189E-03
   4.486334648432224E-03   4.542765791402598E-03   4.599906750770208E-03
   4.657766454926208E-03   4.716353944567092E-03   4.775678374107304E-03
   4.835749013109670E-03   4.896575247733741E-03   4.958166582202431E-03
   5.020532640287058E-03   5.083683166811078E-03   5.147628029172751E-03
   5.212377218886913E-03   5.277940853146189E-03   5.344329176401824E-03
   5.411552561964388E-03   5.479621513624655E-03   5.548546667294801E-03
   5.618338792670318E-03   5.689008794912789E-03   5.760567716353838E-03
   5.833026738220538E-03   5.906397182382471E-03   5.980690513120809E-03
   6.055918338919632E-03   6.132092414279767E-03   6.209224641555479E-03
   6.287327072814199E-03   6.366411911719712E-03   6.446491515438997E-03
   6.527578396573052E-03   6.609685225112040E-03   6.692824830414959E-03
   6.777010203214289E-03   6.862254497645806E-03   6.948571033303939E-03
   7.035973297323009E-03   7.124474946484586E-03   7.214089809351408E-03
   7.304831888428119E-03   7.396715362349188E-03   7.489754588094364E-03
   7.583964103231955E-03   7.679358628190370E-03   7.775953068558217E-03
   7.873762517413318E-03   7.972802257681065E-03   8.073087764522369E-03
   8.174634707751703E-03   8.277458954285546E-03   8.381576570621612E-03
   8.487003825349294E-03   8.593757191691630E-03   8.701853350079303E-03
   8.811309190756983E-03   8.922141816422461E-03   9.034368544899000E-03
   9.148006911841245E-03   9.263074673475230E-03   9.379589809372818E-03
   9.497570525261035E-03   9.617035255866789E-03   9.738002667797284E-03
   9.860491662456743E-03   9.984521378999786E-03   1.011011119732196E-02
   1.023728074108790E-02   1.036604988079754E-02   1.049643873689095E-02
   1.062846768289218E-02   1.076215734859263E-02   1.089752862327458E-02
   1.103460265897512E-02   1.117340087379120E-02   1.131394495522626E-02
   1.145625686357897E-02   1.160035883537456E-02   1.174627338683929E-02
   1.189402331741870E-02   1.204363171334003E-02   1.219512195121951E-02
   1.234851770171506E-02   1.250384293322475E-02   1.266112191563202E-02
   1.282037922409786E-02   1.298163974290072E-02   1.314492866932478E-02
   1.331027151759698E-02   1.347769412287376E-02   1.364722264527782E-02
   1.381888357398569E-02   1.399270373136674E-02   1.416871027717419E-02
   1.434693071278892E-02   1.452739288551657E-02   1.471012499293879E-02
   1.489515558731915E-02   1.508251358006445E-02   1.527222824624226E-02
   1.546432922915513E-02   1.565884654497246E-02   1.585581058742062E-02
   1.605525213253197E-02   1.625720234345370E-02   1.646169277531712E-02
   1.666875538016825E-02   1.687842251196038E-02   1.709072693160944E-02
   1.730570181211290E-02   1.752338074373324E-02   1.774379773924636E-02
   1.796698723925629E-02   1.819298411757647E-02   1.842182368667894E-02
   1.865354170321195E-02   1.888817437358699E-02   1.912575835963621E-02
   1.936633078434078E-02   1.960992923763151E-02   1.985659178226233E-02
   2.010635695975766E-02   2.035926379643467E-02   2.061535180950112E-02
   2.087466101323007E-02   2.113723192521215E-02   2.140310557268657E-02
   2.167232349895169E-02   2.194492776985621E-02   2.222096098037207E-02
   2.250046626125001E-02   2.278348728575881E-02   2.307006827650939E-02
   2.336025401236459E-02   2.365408983543604E-02   2.395162165816888E-02
   2.425289597051575E-02   2.455795984720094E-02   2.486686095507580E-02
   2.517964756056692E-02   2.549636853721777E-02   2.581707337332530E-02
   2.614181217967268E-02   2.647063569735906E-02   2.680359530572808E-02
   2.714074303039597E-02   2.748213155138059E-02   2.782781421133297E-02
   2.817784502387201E-02   2.853227868202429E-02   2.889117056677002E-02
   2.925457675569632E-02   2.962255403175962E-02   2.999515989215793E-02
   3.037245255731503E-02   3.075449097997743E-02   3.114133485442594E-02
   3.153304462580301E-02   3.192968149955734E-02   3.233130745100742E-02
   3.273798523502527E-02   3.314977839584202E-02   3.356675127697692E-02
   3.398896903129087E-02   3.441649763116707E-02   3.484940387881909E-02
   3.528775541672879E-02   3.573162073821591E-02   3.618106919813986E-02
   3.663617102373698E-02   3.709699732559348E-02   3.756362010875648E-02
   3.803611228398531E-02   3.851454767914352E-02   3.899900105073505E-02
   3.948954809558491E-02   3.998626546266675E-02   4.048923076507990E-02
   4.099852259217598E-02   4.151422052183924E-02   4.203640513292045E-02
   4.256515801782734E-02   4.310056179527406E-02   4.364270012319001E-02
   4.419165771179196E-02   4.474752033682008E-02   4.531037485294029E-02
   4.588030920731603E-02   4.645741245334954E-02   4.704177476459723E-02
   4.763348744885920E-02   4.823264296244607E-02   4.883933492462596E-02
   4.945365813225215E-02   5.007570857457574E-02   5.070558344824403E-02
   5.134338117248732E-02   5.198920140449783E-02   5.264314505500054E-02
   5.330531430402143E-02   5.397581261685290E-02   5.465474476022030E-02
   5.534221681865253E-02   5.603833621105719E-02   5.674321170750572E-02
   5.745695344622859E-02   5.817967295082442E-02   5.891148314768638E-02
   5.965249838364642E-02   6.040283444384284E-02   6.116260856981174E-02
   6.193193947780587E-02   6.271094737734502E-02   6.349975398999817E-02
   6.429848256840354E-02   6.510725791552659E-02   6.592620640416057E-02
   6.675545599667324E-02   6.759513626500030E-02   6.844537841089213E-02
   6.930631528641400E-02   7.017808141470404E-02   7.106081301099365E-02
   7.195464800389047E-02   7.285972605693075E-02   7.377618859040183E-02
   7.470417880343885E-02   7.564384169640087E-02   7.659532409352642E-02
   7.755877466587596E-02   7.853434395456176E-02   7.952218439426967E-02
   8.052245033707847E-02   8.153529807657649E-02   8.256088587228382E-02
   8.359937397438028E-02   8.465092464874434E-02   8.571570220230855E-02
   8.679387300873168E-02   8.788560553439592E-02   8.899107036472971E-02
   9.011044023086159E-02   9.124389003661081E-02   9.239159688581523E-02
   9.355374011000521E-02   9.473050129642412E-02   9.592206431640111E-02
   9.712861535408268E-02   9.835034293552286E-02   9.958743795814202E-02
   1.008400937205546E-01   1.021085059527715E-01   1.033928728467851E-01
   1.046933950875353E-01   1.060102758842683E-01   1.073437210022880E-01
   1.086939387951066E-01   1.100611402370016E-01   1.114455389559796E-01
   1.128473512671572E-01   1.142667962065602E-01   1.157040955653479E-01
   1.171594739244697E-01   1.186331586897547E-01   1.201253801274461E-01
   1.216363714001796E-01   1.231663686034153E-01   1.247156108023294E-01
   1.262843400691670E-01   1.278728015210679E-01   1.294812433583660E-01
   1.311099169033702E-01   1.327590766396360E-01   1.344289802517269E-01
   1.361198886654801E-01   1.378320660887755E-01   1.395657800528186E-01
   1.413213014539439E-01   1.430989045959416E-01   1.448988672329194E-01
   1.467214706127017E-01   1.485669995207741E-01   1.504357423247837E-01
   1.523279910195953E-01   1.542440412729174E-01   1.561841924715005E-01
   1.581487477679163E-01   1.601380141279272E-01   1.621523023784486E-01
   1.641919272561184E-01   1.662572074564727E-01   1.683484656837451E-01
   1.704660287012884E-01   1.726102273826318E-01   1.747813967631823E-01
   1.769798760925723E-01   1.792060088876700E-01   1.814601429862543E-01
   1.837426306013633E-01   1.860538283763315E-01   1.883940974405125E-01
   1.907638034657094E-01   1.931633167233101E-01   1.955930121421424E-01
   1.980532693670592E-01   2.005444728182569E-01   2.030670117513432E-01
   2.056212803181591E-01   2.082076776283641E-01   2.108266078118008E-01
   2.134784800816377E-01   2.161637087983127E-01   2.188827135342763E-01
   2.216359191395496E-01   2.244237558081106E-01   2.272466591451100E-01
   2.301050702349376E-01   2.329994357101423E-01   2.359302078212173E-01
   2.388978445072685E-01   2.419028094675650E-01   2.449455722339960E-01
   2.480266082444345E-01   2.511463989170248E-01   2.543054317254078E-01
   2.575042002748857E-01   2.607432043795530E-01   2.640229501403912E-01
   2.673439500243472E-01   2.707067229444106E-01   2.741117943406906E-01
   2.775596962625211E-01   2.810509674515927E-01   2.845861534261308E-01
   2.881658065661372E-01   2.917904861996969E-01   2.954607586903778E-01
   2.991771975257241E-01   3.029403834068640E-01   3.067509043392487E-01
   3.106093557245255E-01   3.145163404535739E-01   3.184724690007072E-01
   3.224783595190586E-01   3.265346379371726E-01   3.306419380568038E-01
   3.348009016519524E-01   3.390121785691426E-01   3.432764268289592E-01
   3.475943127288697E-01   3.519665109473297E-01   3.563937046492066E-01
   3.608765855925242E-01   3.654158542365491E-01   3.700122198512434E-01
   3.746664006280846E-01   3.793791237922886E-01   3.841511257164386E-01
   3.889831520355427E-01   3.938759577635454E-01   3.988303074112948E-01
   4.038469751060038E-01   4.089267447122069E-01   4.140704099542384E-01
   4.192787745402589E-01   4.245526522878298E-01   4.298928672510798E-01
   4.353002538494623E-01   4.407756569981334E-01   4.463199322399761E-01
   4.519339458792755E-01   4.576185751170854E-01   4.633747081882903E-01
   4.692032445003919E-01   4.751050947740491E-01   4.810811811853726E-01
   4.871324375100236E-01   4.932598092691151E-01   4.994642538769488E-01
   5.057467407906197E-01   5.121082516614879E-01   5.185497804885705E-01
   5.250723337738532E-01   5.316769306795550E-01   5.383646031873816E-01
   5.451363962597665E-01   5.519933680031557E-01   5.589365898333356E-01
   5.659671466428412E-01   5.730861369704798E-01   5.802946731729720E-01
   5.875938815987660E-01   5.949849027640300E-01   6.024688915308559E-01
   6.100470172877173E-01   6.177204641321788E-01   6.254904310559232E-01
   6.333581321320914E-01   6.413247967049811E-01   6.493916695821427E-01
   6.575600112288728E-01   6.658310979651736E-01   6.742062221651767E-01
   6.826866924590751E-01   6.912738339376082E-01   6.999689883591005E-01
   7.087735143591218E-01   7.176887876627739E-01   7.267162012996462E-01
   7.358571658214885E-01   7.451131095226021E-01   7.544854786630230E-01
   7.639757376944990E-01   7.735853694893091E-01   7.833158755719750E-01
   7.931687763538660E-01   8.031456113707768E-01   8.132479395234782E-01
   8.234773393212945E-01   8.338354091287589E-01   8.443237674153493E-01
   8.549440530083885E-01   8.656979253491089E-01   8.765870647519399E-01
   8.876131726670701E-01   8.987779719462908E-01   9.100832071122062E-01
   9.215306446308131E-01   9.331220731875108E-01   9.448593039665972E-01
   9.567441709342580E-01   9.687785311251382E-01   9.809642649325038E-01
   9.933032764020505E-01   1.005797493529428E+00   1.018448868561479E+00
   1.031259378301293E+00   1.044231024417081E+00   1.057365833754938E+00
   1.070665858655548E+00   1.084133177274858E+00   1.097769893908803E+00
   1.111578139322103E+00   1.125560071081194E+00   1.139717873891363E+00
   1.154053759938099E+00   1.168569969232767E+00   1.183268769962603E+00
   1.198152458845123E+00   1.213223361486999E+00   1.228483832747428E+00
   1.243936257106094E+00   1.259583049035742E+00   1.275426653379442E+00
   1.291469545732610E+00   1.307714232829812E+00   1.324163252936458E+00
   1.340819176245410E+00   1.357684605278565E+00   1.374762175293528E+00
   1.392054554695354E+00   1.409564445453508E+00   1.427294583524048E+00
   1.445247739277114E+00   1.463426717929824E+00   1.481834359984573E+00
   1.500473541672885E+00   1.519347175404823E+00   1.538458210224051E+00
   1.557809632268647E+00   1.577404465237670E+00   1.597245770863641E+00
   1.617336649390935E+00   1.637680240060189E+00   1.658279721598843E+00
   1.679138312717789E+00   1.700259272614331E+00   1.721645901481427E+00
   1.743301541023342E+00   1.765229574977819E+00   1.787433429644770E+00
   1.809916574421666E+00   1.832682522345622E+00   1.855734830642312E+00
   1.879077101281816E+00   1.902712981541404E+00   1.926646164575457E+00
   1.950880389992520E+00   1.975419444439614E+00   2.000267162193927E+00
   2.025427425761904E+00   2.050904166485920E+00   2.076701365158550E+00
   2.102823052644565E+00   2.129273310510786E+00   2.156056271663811E+00
   2.183176120995813E+00   2.210637096038431E+00   2.238443487624878E+00
   2.266599640560419E+00   2.295109954301226E+00   2.323978883641829E+00
   2.353210939411178E+00   2.382810689177451E+00   2.412782757961777E+00
   2.443131828960876E+00   2.473862644278840E+00   2.504980005668090E+00
   2.536488775279642E+00   2.568393876422863E+00   2.600700294334708E+00
   2.633413076958709E+00   2.666537335733710E+00   2.700078246392526E+00
   2.734041049770699E+00   2.768431052625343E+00   2.803253628464376E+00
   2.838514218386126E+00   2.874218331929495E+00   2.910371547934876E+00
   2.946979515415814E+00   2.984047954441712E+00   3.021582657031589E+00
   3.059589488059080E+00   3.098074386168869E+00   3.137043364704573E+00
   3.176502512648375E+00   3.216457995572430E+00   3.256916056602221E+00
   3.297883017392110E+00   3.339365279113056E+00   3.381369323452853E+00
   3.423901713628897E+00   3.466969095413670E+00   3.510578198173212E+00
   3.554735835918539E+00   3.599448908370394E+00   3.644724402037324E+00
   3.690569391307315E+00   3.736991039553227E+00   3.783996600252030E+00
   3.831593418118222E+00   3.879788930251440E+00   3.928590667298494E+00
   3.978006254630102E+00   4.028043413532304E+00   4.078709962412988E+00
   4.130013818023507E+00   4.181962996695663E+00   4.234565615594330E+00
   4.287829893985717E+00   4.341764154521696E+00   4.396376824540216E+00
   4.451676437382059E+00   4.507671633724259E+00   4.564371162930148E+00
   4.621783884416531E+00   4.679918769037954E+00   4.738784900488400E+00
   4.798391476720688E+00   4.858747811383609E+00   4.919863335277258E+00
   4.981747597826592E+00   5.044410268573522E+00   5.107861138687857E+00
   5.172110122497129E+00   5.237167259035780E+00   5.303042713613764E+00
   5.369746779404865E+00   5.437289879055093E+00   5.505682566311165E+00
   5.574935527669622E+00   5.645059584046580E+00   5.716065692468500E+00
   5.787964947784304E+00   5.860768584398895E+00   5.934487978028624E+00
   6.009134647478741E+00   6.084720256443195E+00   6.161256615327189E+00
   6.238755683092490E+00   6.317229569126122E+00   6.396690535132445E+00
   6.477150997049038E+00   6.558623526986797E+00   6.641120855194261E+00
   6.724655872046815E+00   6.809241630060805E+00   6.894891345932990E+00
   6.981618402605754E+00   7.069436351358127E+00   7.158358913923278E+00
   7.248399984632539E+00   7.339573632586369E+00   7.431894103852782E+00
   7.525375823693215E+00   7.620033398816596E+00   7.715881619661635E+00
   7.812935462707816E+00   7.911210092815598E+00   8.010720865595850E+00
   8.111483329809291E+00   8.213513229795970E+00   8.316826507935311E+00
   8.421439307137248E+00   8.527367973364461E+00   8.634629058186578E+00
   8.743239321366341E+00   8.853215733478310E+00   8.964575478560658E+00
   9.077335956800086E+00   9.191514787250748E+00   9.307129810587215E+00
   9.424199091892072E+00   9.542740923478739E+00   9.662773827749538E+00
   9.784316560089987E+00   9.907388111799317E+00   1.003200771305784E+01
   1.015819483593181E+01   1.028596919741590E+01   1.041535076251404E+01
   1.054635974735905E+01   1.067901662237129E+01   1.081334211545743E+01
   1.094935721524900E+01   1.108708317438210E+01   1.122654151281806E+01
   1.136775402120596E+01   1.151074276428756E+01   1.165553008434485E+01
   1.180213860469118E+01   1.195059123320615E+01   1.210091116591495E+01
   1.225312189061295E+01   1.240724719053550E+01   1.256331114807432E+01