<UPF version="2.0.1">
  <PP_INFO>
    Generated using "atomic" code by A. Dal Corso  v.5.0.99 svn rev. 10869
    Author: ADC (similar to GBRV)
    Generation date: 10Apr2014
    Pseudopotential type: USPP
    Element: Te
    Functional: PBE

    Suggested minimum cutoff for wavefunctions:  34. Ry
    Suggested minimum cutoff for charge density: 148. Ry
    The Pseudo was generated with a Fully-Relativistic Calculation
    Local Potential by smoothing AE potential with Bessel fncs, cutoff radius:   2.1000
    Pseudopotential contains additional information for spin-orbit calculations.

    Valence configuration: 
    nl pn  l   occ       Rcut    Rcut US       E pseu
    5S  1  0  2.00      1.700      2.100    -1.100777
    5P  2  1  2.00      1.700      2.100    -0.470997
    5P  2  1  2.00      1.700      2.100    -0.413177
    Generation configuration:
    5S  1  0  2.00      1.700      2.100    -1.100775
    5S  1  0  0.00      1.700      2.100     6.300000
    5P  2  1  2.00      1.700      2.100    -0.470998
    5P  2  1  2.00      1.700      2.100    -0.413174
    5P  2  1  0.00      1.700      2.100     6.300000
    5P  2  1  0.00      1.700      2.100     6.300000
    5D  3  2  0.00      1.700      2.600     0.500000
    5D  3  2  0.00      1.700      2.600     0.500000
    5D  3  2  0.00      1.700      2.600     6.300000
    5D  3  2  0.00      1.700      2.600     6.300000

    Pseudization used: troullier-martins
<PP_INPUTFILE>
 &input
   title='Te',
   zed=52.,
   rel=2,
   config='[Kr] 4d10.0 5s2.0 5p4.0 5d-2.0',
   iswitch=3,
   dft='PBE'
 /
 &inputp
   pseudotype=3,
   file_pseudopw='Te.rel-pbe-n-rrkjus_psl.0.3.1.UPF',
   author='ADC (similar to GBRV)',
   lloc=-1,
   rcloc=2.1,
   which_augfun='PSQ',
   rmatch_augfun_nc=.true.,
   nlcc=.true.,
   new_core_ps=.true.,
   rcore=1.1,
   tm=.true.
 /
6
5S  1  0  2.00  0.00  1.70  2.10  0.0
5S  1  0  0.00  6.30  1.70  2.10  0.0
5P  2  1  4.00  0.00  1.70  2.10  0.0
5P  2  1  0.00  6.30  1.70  2.10  0.0
5D  3  2  0.00  0.50  1.70  2.60  0.0
5D  3  2  0.00  6.30  1.70  2.60  0.0
</PP_INPUTFILE>
  </PP_INFO>
  <!--                               -->
  <!-- END OF HUMAN READABLE SECTION -->
  <!--                               -->
  <PP_HEADER generated='Generated using "atomic" code by A. Dal Corso  v.5.0.99 svn rev. 10869'
             author="ADC (similar to GBRV)"
             date="10Apr2014"
             comment=""
             element="Te"
             pseudo_type="USPP"
             relativistic="full"
             is_ultrasoft="T"
             is_paw="F"
             is_coulomb="F"
             has_so="T"
             has_wfc="F"
             has_gipaw="F"
             paw_as_gipaw="F"
             core_correction="T"
             functional="PBE"
             z_valence="6.000000000000000E+000"
             total_psenergy="-7.968555477911613E+001"
             wfc_cutoff="3.443615981070833E+001"
             rho_cutoff="1.480422426111577E+002"
             l_max="2"
             l_max_rho="4"
             l_local="-1"
             mesh_size="1245"
             number_of_wfc="3"
             number_of_proj="10"/>
  <PP_MESH dx="1.250000000000000E-002" mesh="1245" xmin="-7.000000000000000E+000" rmax="1.000000000000000E+002"
zmesh="5.200000000000000E+001">
    <PP_R type="real" size="1245" columns="4">
 1.753619164527916E-005  1.775676978209658E-005  1.798012245031889E-005  1.820628454925488E-005 
 1.843529141719269E-005  1.866717883692133E-005  1.890198304132190E-005  1.913974071902906E-005 
 1.938048902016366E-005  1.962426556213759E-005  1.987110843553148E-005  2.012105621004651E-005 
 2.037414794053097E-005  2.063042317308263E-005  2.088992195122804E-005  2.115268482217920E-005 
 2.141875284316929E-005  2.168816758786793E-005  2.196097115287707E-005  2.223720616430880E-005 
 2.251691578444566E-005  2.280014371848486E-005  2.308693422136732E-005  2.337733210469259E-005 
 2.367138274372079E-005  2.396913208446249E-005  2.427062665085797E-005  2.457591355204662E-005 
 2.488504048972785E-005  2.519805576561462E-005  2.551500828898061E-005  2.583594758430244E-005 
 2.616092379899796E-005  2.648998771126187E-005  2.682319073799998E-005  2.716058494286311E-005 
 2.750222304438220E-005  2.784815842420568E-005  2.819844513544044E-005  2.855313791109782E-005 
 2.891229217264562E-005  2.927596403866792E-005  2.964421033363366E-005  3.001708859677562E-005 
 3.039465709108110E-005  3.077697481239547E-005  3.116410149864051E-005  3.155609763914858E-005 
 3.195302448411411E-005  3.235494405416425E-005  3.276191915004950E-005  3.317401336245659E-005 
 3.359129108194461E-005  3.401381750900617E-005  3.444165866425519E-005  3.487488139874260E-005 
 3.531355340440206E-005  3.575774322462694E-005  3.620752026498034E-005  3.666295480403993E-005 
 3.712411800437903E-005  3.759108192368591E-005  3.806391952602301E-005  3.854270469322767E-005 
 3.902751223645642E-005  3.951841790787421E-005  4.001549841249095E-005  4.051883142014681E-005 
 4.102849557764823E-005  4.154457052105682E-005  4.206713688813240E-005  4.259627633093302E-005 
 4.313207152857314E-005  4.367460620014244E-005  4.422396511778723E-005  4.478023411995604E-005 
 4.534350012481217E-005  4.591385114381487E-005  4.649137629547122E-005  4.707616581926121E-005 
 4.766831108973766E-005  4.826790463080382E-005  4.887504013017035E-005  4.948981245399423E-005 
 5.011231766170189E-005  5.074265302099849E-005  5.138091702306635E-005  5.202720939795436E-005 
 5.268163113016093E-005  5.334428447441324E-005  5.401527297164448E-005  5.469470146517246E-005 
 5.538267611708160E-005  5.607930442481092E-005  5.678469523795090E-005  5.749895877525116E-005 
 5.822220664184260E-005  5.895455184667583E-005  5.969610882017902E-005  6.044699343213808E-005 
 6.120732300980129E-005  6.197721635621205E-005  6.275679376877209E-005  6.354617705803812E-005 
 6.434548956675523E-005  6.515485618912907E-005  6.597440339034104E-005  6.680425922630872E-005 
 6.764455336369478E-005  6.849541710016788E-005  6.935698338491789E-005  7.022938683942968E-005 
 7.111276377851792E-005  7.200725223162654E-005  7.291299196439631E-005  7.383012450050314E-005 
 7.475879314377173E-005  7.569914300056699E-005  7.665132100246713E-005  7.761547592922228E-005 
 7.859175843200128E-005  7.958032105693148E-005  8.058131826893422E-005  8.159490647586039E-005 
 8.262124405292961E-005  8.366049136747632E-005  8.471281080400781E-005  8.577836678957696E-005 
 8.685732581947435E-005  8.794985648324371E-005  8.905612949102395E-005  9.017631770022329E-005 
 9.131059614252841E-005  9.245914205125358E-005  9.362213488903391E-005  9.479975637586638E-005 
 9.599219051750417E-005  9.719962363420796E-005  9.842224438985868E-005  9.966024382143702E-005 
 1.009138153688728E-004  1.021831549052707E-004  1.034684607675158E-004  1.047699337872639E-004 
 1.060877773223225E-004  1.074221972884250E-004  1.087734021914059E-004  1.101416031597805E-004 
 1.115270139777335E-004  1.129298511185241E-004  1.143503337783095E-004  1.157886839103954E-004 
 1.172451262599161E-004  1.187198883989520E-004  1.202132007620877E-004  1.217252966824182E-004 
 1.232564124280074E-004  1.248067872388055E-004  1.263766633640310E-004  1.279662861000226E-004 
 1.295759038285667E-004  1.312057680557082E-004  1.328561334510487E-004  1.345272578875387E-004 
 1.362194024817716E-004  1.379328316347827E-004  1.396678130733633E-004  1.414246178918930E-004 
 1.432035205946988E-004  1.450047991389476E-004  1.468287349780762E-004  1.486756131057706E-004 
 1.505457221004956E-004  1.524393541705864E-004  1.543568051999069E-004  1.562983747940810E-004 
 1.582643663273083E-004  1.602550869897656E-004  1.622708478356064E-004  1.643119638315644E-004 
 1.663787539061661E-004  1.684715409995659E-004  1.705906521140050E-004  1.727364183649061E-004 
 1.749091750326120E-004  1.771092616147719E-004  1.793370218793909E-004  1.815928039185425E-004 
 1.838769602027597E-004  1.861898476361095E-004  1.885318276119582E-004  1.909032660694425E-004 
 1.933045335506459E-004  1.957360052584975E-004  1.981980611153990E-004  2.006910858225866E-004 
 2.032154689202434E-004  2.057716048483640E-004  2.083598930083875E-004  2.109807378256055E-004 
 2.136345488123520E-004  2.163217406319936E-004  2.190427331637188E-004  2.217979515681466E-004 
 2.245878263537587E-004  2.274127934441657E-004  2.302732942462235E-004  2.331697757190019E-004 
 2.361026904436238E-004  2.390724966939826E-004  2.420796585083461E-004  2.451246457618667E-004 
 2.482079342399976E-004  2.513300057128361E-004  2.544913480104027E-004  2.576924550988621E-004 
 2.609338271577102E-004  2.642159706579258E-004  2.675393984411081E-004  2.709046297996103E-004 
 2.743121905576780E-004  2.777626131536130E-004  2.812564367229658E-004  2.847942071827769E-004 
 2.883764773168792E-004  2.920038068622682E-004  2.956767625965660E-004  2.993959184265786E-004 
 3.031618554779709E-004  3.069751621860697E-004  3.108364343878053E-004  3.147462754148159E-004 
 3.187052961877165E-004  3.227141153115569E-004  3.267733591724824E-004  3.308836620356035E-004 
 3.350456661441060E-004  3.392600218195993E-004  3.435273875637314E-004  3.478484301610829E-004 
 3.522238247833496E-004  3.566542550948439E-004  3.611404133593156E-004  3.656830005481203E-004 
 3.702827264497487E-004  3.749403097807307E-004  3.796564782979381E-004  3.844319689122967E-004 
 3.892675278039306E-004  3.941639105387550E-004  3.991218821865335E-004  4.041422174404237E-004 
 4.092257007380226E-004  4.143731263839379E-004  4.195852986738995E-004  4.248630320204316E-004 
 4.302071510801077E-004  4.356184908824033E-004  4.410978969601717E-004  4.466462254817611E-004 
 4.522643433847905E-004  4.579531285116131E-004  4.637134697464784E-004  4.695462671544237E-004 
 4.754524321219115E-004  4.814328874992336E-004  4.874885677447105E-004  4.936204190707006E-004 
 4.998293995914489E-004  5.061164794727945E-004  5.124826410837593E-004  5.189288791500478E-004 
 5.254562009094725E-004  5.320656262693380E-004  5.387581879658042E-004  5.455349317252519E-004 
 5.523969164276814E-004  5.593452142721630E-004  5.663809109443709E-004  5.735051057862252E-004 
 5.807189119676635E-004  5.880234566605787E-004  5.954198812149402E-004  6.029093413371325E-004 
 6.104930072705375E-004  6.181720639783859E-004  6.259477113289122E-004  6.338211642828340E-004 
 6.417936530831938E-004  6.498664234475877E-004  6.580407367628083E-004  6.663178702819428E-004 
 6.746991173239431E-004  6.831857874757108E-004  6.917792067967244E-004  7.004807180262353E-004 
 7.092916807930772E-004  7.182134718281081E-004  7.272474851793286E-004  7.363951324297050E-004 
 7.456578429177309E-004  7.550370639607657E-004  7.645342610811792E-004  7.741509182353433E-004 
 7.838885380455044E-004  7.937486420345682E-004  8.037327708638446E-004  8.138424845737754E-004 
 8.240793628276959E-004  8.344450051586611E-004  8.449410312193734E-004  8.555690810352600E-004 
 8.663308152607273E-004  8.772279154386424E-004  8.882620842630793E-004  8.994350458453650E-004 
 9.107485459834794E-004  9.222043524348360E-004  9.338042551924995E-004  9.455500667648766E-004 
 9.574436224589220E-004  9.694867806669111E-004  9.816814231568157E-004  9.940294553663349E-004 
 1.006532806700623E-003  1.019193430833765E-003  1.032013306014041E-003  1.044994435373029E-003 
 1.058138847238601E-003  1.071448595451854E-003  1.084925759688026E-003  1.098572445781448E-003 
 1.112390786054586E-003  1.126382939651222E-003  1.140551092873822E-003  1.154897459525153E-003 
 1.169424281254192E-003  1.184133827906389E-003  1.199028397878336E-003  1.214110318476892E-003 
 1.229381946282838E-003  1.244845667519088E-003  1.260503898423545E-003  1.276359085626647E-003 
 1.292413706533649E-003  1.308670269711735E-003  1.325131315281973E-003  1.341799415316224E-003 
 1.358677174239031E-003  1.375767229234562E-003  1.393072250658682E-003  1.410594942456195E-003 
 1.428338042583344E-003  1.446304323435624E-003  1.464496592280968E-003  1.482917691698398E-003 
 1.501570500022176E-003  1.520457931791552E-003  1.539582938206165E-003  1.558948507587178E-003 
 1.578557665844208E-003  1.598413476948126E-003  1.618519043409815E-003  1.638877506764940E-003 
 1.659492048064817E-003  1.680365888373469E-003  1.701502289270910E-003  1.722904553362783E-003 
 1.744576024796395E-003  1.766520089783248E-003  1.788740177128144E-003  1.811239758764936E-003 
 1.834022350299032E-003  1.857091511556709E-003  1.880450847141347E-003  1.904104006996660E-003 
 1.928054686976995E-003  1.952306629424829E-003  1.976863623755508E-003  2.001729507049358E-003 
 2.026908164651237E-003  2.052403530777619E-003  2.078219589131333E-003  2.104360373524019E-003 
 2.130829968506423E-003  2.157632510006610E-003  2.184772185976226E-003  2.212253237044854E-003 
 2.240079957182635E-003  2.268256694371204E-003  2.296787851283069E-003  2.325677885969552E-003 
 2.354931312557345E-003  2.384552701953871E-003  2.414546682561487E-003  2.444917941000685E-003 
 2.475671222842389E-003  2.506811333349456E-003  2.538343138227505E-003  2.570271564385202E-003 
 2.602601600704091E-003  2.635338298818124E-003  2.668486773902986E-003  2.702052205475349E-003 
 2.736039838202186E-003  2.770454982720255E-003  2.805303016465912E-003  2.840589384515324E-003 
 2.876319600435291E-003  2.912499247144744E-003  2.949133977787086E-003  2.986229516613520E-003 
 3.023791659877455E-003  3.061826276740199E-003  3.100339310188017E-003  3.139336777960739E-003 
 3.178824773492049E-003  3.218809466861588E-003  3.259297105759042E-003  3.300294016460363E-003 
 3.341806604816253E-003  3.383841357253106E-003  3.426404841786510E-003  3.469503709047517E-003 
 3.513144693321822E-003  3.557334613602005E-003  3.602080374653020E-003  3.647388968091064E-003 
 3.693267473476043E-003  3.739723059417763E-003  3.786762984696039E-003  3.834394599394907E-003 
 3.882625346051066E-003  3.931462760816810E-003  3.980914474637554E-003  4.030988214444189E-003 
 4.081691804360444E-003  4.133033166925397E-003  4.185020324331404E-003  4.237661399677577E-003 
 4.290964618239035E-003  4.344938308752133E-003  4.399590904715817E-003  4.454930945709402E-003 
 4.510967078726881E-003  4.567708059528041E-003  4.625162754006581E-003  4.683340139575400E-003 
 4.742249306569358E-003  4.801899459665649E-003  4.862299919322048E-003  4.923460123233271E-003 
 4.985389627805608E-003  5.048098109650142E-003  5.111595367094745E-003  5.175891321715074E-003 
 5.240996019884859E-003  5.306919634345639E-003  5.373672465796297E-003  5.441264944502559E-003 
 5.509707631926732E-003  5.579011222377988E-003  5.649186544683326E-003  5.720244563879629E-003 
 5.792196382926967E-003  5.865053244443448E-003  5.938826532461921E-003  6.013527774208729E-003 
 6.089168641904873E-003  6.165760954589825E-003  6.243316679968264E-003  6.321847936280081E-003 
 6.401366994193840E-003  6.481886278724125E-003  6.563418371172960E-003  6.645976011095664E-003 
 6.729572098291451E-003  6.814219694819016E-003  6.899932027037535E-003  6.986722487673297E-003 
 7.074604637912352E-003  7.163592209519482E-003  7.253699106983790E-003  7.344939409691329E-003 
 7.437327374125029E-003  7.530877436092288E-003  7.625604212980633E-003  7.721522506041669E-003 
 7.818647302703834E-003  7.916993778914206E-003  8.016577301509776E-003  8.117413430618569E-003 
 8.219517922090901E-003  8.322906729961298E-003  8.427596008941338E-003  8.533602116943843E-003 
 8.640941617638878E-003  8.749631283041803E-003  8.859688096133963E-003  8.971129253516320E-003 
 9.083972168096437E-003  9.198234471809310E-003  9.313934018372359E-003  9.431088886075122E-003 
 9.549717380604035E-003  9.669838037902711E-003  9.791469627068256E-003  9.914631153283929E-003 
 1.003934186078878E-002  1.016562123588457E-002  1.029348900998058E-002  1.042296516267668E-002 
 1.055406992488513E-002  1.068682378199176E-002  1.082124747705685E-002  1.095736201405621E-002 
 1.109518866116321E-002  1.123474895407185E-002  1.137606469936184E-002  1.151915797790588E-002 
 1.166405114831987E-002  1.181076685045650E-002  1.195932800894270E-002  1.210975783676174E-002 
 1.226207983888026E-002  1.241631781592100E-002  1.257249586788168E-002  1.273063839790066E-002 
 1.289077011606999E-002  1.305291604329644E-002  1.321710151521100E-002  1.338335218612773E-002 
 1.355169403305219E-002  1.372215335974044E-002  1.389475680080909E-002  1.406953132589696E-002 
 1.424650424387919E-002  1.442570320713427E-002  1.460715621586479E-002  1.479089162247252E-002 
 1.497693813598856E-002  1.516532482655917E-002  1.535608112998802E-002  1.554923685233563E-002 
 1.574482217457659E-002  1.594286765731539E-002  1.614340424556168E-002  1.634646327356536E-002 
 1.655207646971266E-002  1.676027596148382E-002  1.697109428047299E-002  1.718456436747146E-002 
 1.740071957761461E-002  1.761959368559381E-002  1.784122089093372E-002  1.806563582333607E-002 
 1.829287354809066E-002  1.852296957155427E-002  1.875595984669871E-002  1.899188077872850E-002 
 1.923076923076923E-002  1.947266252962759E-002  1.971759847162364E-002  1.996561532849665E-002 
 2.021675185338509E-002  2.047104728688191E-002  2.072854136316599E-002  2.098927431621062E-002 
 2.125328688607016E-002  2.152062032524580E-002  2.179131640513127E-002  2.206541742253985E-002 
 2.234296620631315E-002  2.262400612401329E-002  2.290858108869921E-002  2.319673556578809E-002 
 2.348851458000327E-002  2.378396372240933E-002  2.408312915753587E-002  2.438605763059078E-002 
 2.469279647476426E-002  2.500339361862483E-002  2.531789759360812E-002  2.563635754160007E-002 
 2.595882322261546E-002  2.628534502257301E-002  2.661597396116830E-002  2.695076169984565E-002 
 2.728976054987035E-002  2.763302348050241E-002  2.798060412727310E-002  2.833255680036569E-002 
 2.868893649310136E-002  2.904979889053218E-002  2.941520037814192E-002  2.978519805065640E-002 
 3.015984972096479E-002  3.053921392915277E-002  3.092334995164969E-002  3.131231781049060E-002 
 3.170617828269477E-002  3.210499290976237E-002  3.250882400729023E-002  3.291773467470895E-002 
 3.333178880514224E-002  3.375105109539035E-002  3.417558705603921E-002  3.460546302169633E-002 
 3.504074616135596E-002  3.548150448889425E-002  3.592780687369658E-002  3.637972305141866E-002 
 3.683732363488263E-002  3.730068012511067E-002  3.776986492249709E-002  3.824495133812100E-002 
 3.872601360520148E-002  3.921312689069646E-002  3.970636730704784E-002  4.020581192407417E-002 
 4.071153878101298E-002  4.122362689871461E-002  4.174215629198929E-002  4.226720798210967E-002 
 4.279886400947056E-002  4.333720744640786E-002  4.388232241017893E-002  4.443429407610586E-002 
 4.499320869088446E-002  4.555915358606041E-002  4.613221719167496E-002  4.671248905008248E-002 
 4.730005982994136E-002  4.789502134038139E-002  4.849746654534903E-002  4.910748957813321E-002 
 4.972518575607398E-002  5.035065159545581E-002  5.098398482658861E-002  5.162528440907831E-002 
 5.227465054728933E-002  5.293218470600206E-002  5.359798962626638E-002  5.427216934145576E-002 
 5.495482919352242E-002  5.564607584945695E-002  5.634601731795586E-002  5.705476296629747E-002 
 5.777242353743139E-002  5.849911116728203E-002  5.923493940226983E-002  5.998002321705376E-002 
 6.073447903249556E-002  6.149842473385143E-002  6.227197968919160E-002  6.305526476805141E-002 
 6.384840236031829E-002  6.465151639535444E-002  6.546473236136188E-002  6.628817732498994E-002 
 6.712197995118926E-002  6.796627052331680E-002  6.882118096349193E-002  6.968684485321040E-002 
 7.056339745421628E-002  7.145097572963661E-002  7.234971836538297E-002  7.325976579182043E-002 
 7.418126020571102E-002  7.511434559243182E-002  7.605916774847264E-002  7.701587430421787E-002 
 7.798461474701300E-002  7.896554044452329E-002  7.995880466838481E-002  8.096456261815307E-002 
 8.198297144555428E-002  8.301419027903932E-002  8.405838024864917E-002  8.511570451119112E-002 
 8.618632827573201E-002  8.727041882941361E-002  8.836814556359020E-002  8.947968000029748E-002 
 9.060519581905278E-002  9.174486888399236E-002  9.289887727135161E-002  9.406740129728858E-002 
 9.525062354605987E-002  9.644872889854929E-002  9.766190456115541E-002  9.889034009504406E-002 
 1.001342274457664E-001  1.013937609732517E-001  1.026691374821765E-001  1.039605562527147E-001 
 1.052682190716770E-001  1.065923302640389E-001  1.079330967248684E-001  1.092907279516528E-001 
 1.106654360770333E-001  1.120574359019515E-001  1.134669449292119E-001  1.148941833974677E-001 
 1.163393743156337E-001  1.178027434977305E-001  1.192845195981706E-001  1.207849341474840E-001 
 1.223042215884967E-001  1.238426193129628E-001  1.254003676986560E-001  1.269777101469314E-001 
 1.285748931207552E-001  1.301921661832168E-001  1.318297820365227E-001  1.334879965614814E-001 
 1.351670688574866E-001  1.368672612829999E-001  1.385888394965474E-001  1.403320724982276E-001 
 1.420972326717433E-001  1.438845958269632E-001  1.456944412430163E-001  1.475270517119313E-001 
 1.493827135828227E-001  1.512617168066325E-001  1.531643549814381E-001  1.550909253983245E-001 
 1.570417290878394E-001  1.590170708670283E-001  1.610172593870628E-001  1.630426071814689E-001 
 1.650934307149595E-001  1.671700504328846E-001  1.692727908113003E-001  1.714019804076680E-001 
 1.735579519121948E-001  1.757410421998140E-001  1.779515923828248E-001  1.801899478641911E-001 
 1.824564583915101E-001  1.847514781116637E-001  1.870753656261517E-001  1.894284840471266E-001 
 1.918112010541294E-001  1.942238889515395E-001  1.966669247267502E-001  1.991406901090711E-001 
 2.016455716293764E-001  2.041819606805002E-001  2.067502535783914E-001  2.093508516240414E-001 
 2.119841611661847E-001  2.146505936647955E-001  2.173505657553767E-001  2.200844993140600E-001 
 2.228528215235270E-001  2.256559649397541E-001  2.284943675596038E-001  2.313684728892604E-001 
 2.342787300135283E-001  2.372255936660051E-001  2.402095243001310E-001  2.432309881611389E-001 
 2.462904573589046E-001  2.493884099417141E-001  2.525253299709621E-001  2.557017075967844E-001 
 2.589180391346483E-001  2.621748271428993E-001  2.654725805012903E-001  2.688118144904932E-001 
 2.721930508726117E-001  2.756168179727105E-001  2.790836507613639E-001  2.825940909382489E-001 
 2.861486870167856E-001  2.897479944098422E-001  2.933925755165227E-001  2.970829998100389E-001 
 3.008198439266956E-001  3.046036917559891E-001  3.084351345318399E-001  3.123147709249781E-001 
 3.162432071364820E-001  3.202210569925028E-001  3.242489420401740E-001  3.283274916447281E-001 
 3.324573430878397E-001  3.366391416671979E-001  3.408735407973393E-001  3.451612021117434E-001 
 3.495027955662128E-001  3.538989995435591E-001  3.583505009595965E-001  3.628579953704785E-001 
 3.674221870813782E-001  3.720437892565350E-001  3.767235240306927E-001  3.814621226219295E-001 
 3.862603254459167E-001  3.911188822316082E-001  3.960385521383853E-001  4.010201038746815E-001 
 4.060643158180890E-001  4.111719761369874E-001  4.163438829136937E-001  4.215808442691629E-001 
 4.268836784892628E-001  4.322532141526274E-001  4.376902902601294E-001  4.431957563659731E-001 
 4.487704727104370E-001  4.544153103542933E-001  4.601311513149068E-001  4.659188887040573E-001 
 4.717794268674880E-001  4.777136815262086E-001  4.837225799195846E-001  4.898070609502134E-001 
 4.959680753306358E-001  5.022065857318845E-001  5.085235669339000E-001  5.149200059778491E-001 
 5.213969023203444E-001  5.279552679896173E-001  5.345961277436480E-001  5.413205192302818E-001 
 5.481294931493715E-001  5.550241134169430E-001  5.620054573314411E-001  5.690746157420573E-001 
 5.762326932191736E-001  5.834808082269608E-001  5.908200932981333E-001  5.982516952109166E-001 
 6.057767751682301E-001  6.133965089791250E-001  6.211120872425139E-001  6.289247155331956E-001 
 6.368356145902367E-001  6.448460205077109E-001  6.529571849278375E-001  6.611703752365621E-001 
 6.694868747615779E-001  6.779079829728565E-001  6.864350156856905E-001  6.950693052662872E-001 
 7.038122008399623E-001  7.126650685019345E-001  7.216292915307884E-001  7.307062706046116E-001 
 7.398974240198488E-001  7.492041879129234E-001  7.586280164846261E-001  7.681703822273449E-001 
 7.778327761551430E-001  7.876167080367270E-001  7.975237066313619E-001  8.075553199277310E-001 
 8.177131153858228E-001  8.279986801818454E-001  8.384136214562213E-001  8.489595665647170E-001 
 8.596381633327088E-001  8.704510803126685E-001  8.814000070448753E-001  8.924866543214034E-001 
 9.037127544534490E-001  9.150800615419943E-001  9.265903517519003E-001  9.382454235894320E-001 
 9.500470981832728E-001  9.619972195690926E-001  9.740976549776666E-001  9.863502951266482E-001 
 9.987570545159902E-001  1.011319871727086E+000  1.024040709725687E+000  1.036921556168607E+000 
 1.049964423714312E+000  1.063171350337394E+000  1.076544399647003E+000  1.090085661209305E+000 
 1.103797250873966E+000  1.117681311104769E+000  1.131740011314374E+000  1.145975548203288E+000 
 1.160390146103117E+000  1.174986057324103E+000  1.189765562507075E+000  1.204730970979787E+000 
 1.219884621117757E+000  1.235228880709653E+000  1.250766147327250E+000  1.266498848700071E+000 
 1.282429443094716E+000  1.298560419698964E+000  1.314894299010735E+000  1.331433633231897E+000 
 1.348181006667074E+000  1.365139036127441E+000  1.382310371339597E+000  1.399697695359611E+000 
 1.417303724992228E+000  1.435131211215402E+000  1.453182939610129E+000  1.471461730795690E+000 
 1.489970440870403E+000  1.508711961857868E+000  1.527689222158872E+000  1.546905187008948E+000 
 1.566362858941695E+000  1.586065278257945E+000  1.606015523500794E+000  1.626216711936654E+000 
 1.646672000042320E+000  1.667384583998171E+000  1.688357700187595E+000  1.709594625702660E+000 
 1.731098678856189E+000  1.752873219700239E+000  1.774921650551113E+000  1.797247416520995E+000 
 1.819854006056234E+000  1.842744951482440E+000  1.865923829556412E+000  1.889394262025001E+000 
 1.913159916191038E+000  1.937224505486329E+000  1.961591790051917E+000  1.986265577325593E+000 
 2.011249722636812E+000  2.036548129809116E+000  2.062164751770088E+000  2.088103591169031E+000 
 2.114368701002377E+000  2.140964185246968E+000  2.167894199501333E+000  2.195162951634981E+000 
 2.222774702445917E+000  2.250733766326383E+000  2.279044511936987E+000  2.307711362889338E+000 
 2.336738798437211E+000  2.366131354176472E+000  2.395893622753759E+000  2.426030254584080E+000 
 2.456545958577482E+000  2.487445502874788E+000  2.518733715592665E+000  2.550415485578013E+000 
 2.582495763171837E+000  2.614979560982791E+000  2.647871954670360E+000  2.681178083737984E+000 
 2.714903152336096E+000  2.749052430075269E+000  2.783631252849637E+000  2.818645023670600E+000 
 2.854099213511089E+000  2.889999362160403E+000  2.926351079089800E+000  2.963160044329018E+000 
 3.000432009353752E+000  3.038172797984374E+000  3.076388307295898E+000  3.115084508539391E+000 
 3.154267448075038E+000  3.193943248316848E+000  3.234118108689335E+000  3.274798306596176E+000 
 3.315990198401045E+000  3.357700220420855E+000  3.399934889931393E+000  3.442700806185705E+000 
 3.486004651445219E+000  3.529853192023846E+000  3.574253279345275E+000  3.619211851013471E+000 
 3.664735931896731E+000  3.710832635225319E+000  3.757509163702903E+000  3.804772810632033E+000 
 3.852630961053689E+000  3.901091092901248E+000  3.950160778168911E+000  3.999847684094820E+000 
 4.050159574359130E+000  4.101104310297040E+000  4.152689852127194E+000  4.204924260195465E+000 
 4.257815696234369E+000  4.311372424638409E+000  4.365602813755348E+000  4.420515337193824E+000 
 4.476118575147352E+000  4.532421215734973E+000  4.589432056358843E+000  4.647160005078784E+000 
 4.705614082004238E+000  4.764803420703660E+000  4.824737269631627E+000  4.885424993573986E+000 
 4.946876075111057E+000  5.009100116099361E+000  5.072106839171909E+000  5.135906089257348E+000 
 5.200507835118326E+000  5.265922170909049E+000  5.332159317752576E+000  5.399229625337876E+000 
 5.467143573536941E+000  5.535911774042372E+000  5.605544972025388E+000  5.676054047814852E+000 
 5.747450018597319E+000  5.819744040138459E+000  5.892947408526242E+000  5.967071561935892E+000 
 6.042128082417197E+000  6.118128697704194E+000  6.195085283047626E+000  6.273009863070545E+000 
 6.351914613647095E+000  6.431811863805097E+000  6.512714097652453E+000  6.594633956327777E+000 
 6.677584239975674E+000  6.761577909746707E+000  6.846628089822675E+000  6.932748069467264E+000 
 7.019951305102479E+000  7.108251422411332E+000  7.197662218466773E+000  7.288197663887606E+000 
 7.379871905021389E+000  7.472699266154785E+000  7.566694251751855E+000  7.661871548720307E+000 
 7.758246028706444E+000  7.855832750418856E+000  7.954646961981323E+000  8.054704103315467E+000 
 8.156019808553165E+000  8.258609908479498E+000  8.362490433006320E+000  8.467677613676901E+000 
 8.574187886202260E+000  8.682037893029145E+000  8.791244485940556E+000  8.901824728688839E+000 
 9.013795899661865E+000  9.127175494582941E+000  9.241981229244411E+000  9.358231042275907E+000 
 9.475943097947246E+000  9.595135789006578E+000  9.715827739554413E+000  9.838037807953542E+000 
 9.961785089775807E+000  1.008708892078578E+001  1.021396887996194E+001  1.034244479255610E+001 
 1.047253673319095E+001  1.060426502899690E+001  1.073765026278819E+001  1.087271327627895E+001 
 1.100947517333984E+001  1.114795732329551E+001  1.128818136426363E+001  1.143016920653593E+001 
 1.157394303600158E+001  1.171952531761400E+001  1.186693879890084E+001  1.201620651351848E+001 
 1.216735178485104E+001  1.232039822965463E+001  1.247536976174767E+001  1.263229059574730E+001 
 1.279118525085311E+001  1.295207855467826E+001  1.311499564712876E+001  1.327996198433181E+001 
 1.344700334261319E+001  1.361614582252499E+001  1.378741585292384E+001  1.396084019510041E+001 
 1.413644594696104E+001  1.431426054726167E+001  1.449431177989541E+001  1.467662777823369E+001 
 1.486123702952211E+001  1.504816837933186E+001  1.523745103606658E+001  1.542911457552652E+001 
 1.562318894552969E+001  1.581970447059120E+001  1.601869185666171E+001  1.622018219592507E+001 