
     Program BANDS v.7.1 starts on 22Sep2023 at 15:59: 3 

     This program is part of the open-source Quantum ESPRESSO suite
     for quantum simulation of materials; please cite
         "P. Giannozzi et al., J. Phys.:Condens. Matter 21 395502 (2009);
         "P. Giannozzi et al., J. Phys.:Condens. Matter 29 465901 (2017);
         "P. Giannozzi et al., J. Chem. Phys. 152 154105 (2020);
          URL http://www.quantum-espresso.org", 
     in publications or presentations arising from this work. More details at
     http://www.quantum-espresso.org/quote

     Parallel version (MPI & OpenMP), running on      10 processor cores
     Number of MPI processes:                10
     Threads/MPI process:                     1

     MPI processes distributed on     1 nodes
     R & G space division:  proc/nbgrp/npool/nimage =      10
     11681 MiB available memory on the printing compute node when the environment starts


     Reading xml data from directory:

     ./work/pwscf.save/
     Message from routine volume:
     axis vectors are left-handed
     file Cu.pbe-dn-kjpaw_psl.1.0.0.UPF: wavefunction(s)  4S 3D renormalized

     IMPORTANT: XC functional enforced from input :
     Exchange-correlation= PBE
                           (   1   4   3   4   0   0   0)
     Any further DFT definition will be discarded
     Please, verify this is what you really want


     Parallelization info
     --------------------
     sticks:   dense  smooth     PW     G-vecs:    dense   smooth      PW
     Min          37      29      9                  490      328      59
     Max          39      30     10                  492      330      62
     Sum         379     295     91                 4909     3287     609

     Using Slab Decomposition

     Reading collected, re-writing distributed wavefunctions
     high-symmetry point:  0.0000 1.0000 0.5000   x coordinate   0.0000
     high-symmetry point:  0.5000-0.5000 0.5000   x coordinate   1.5811
     high-symmetry point:  0.0000 0.0000 0.0000   x coordinate   2.4472
     high-symmetry point:  0.0000 0.0000 1.0000   x coordinate   3.4472
     high-symmetry point:  1.0000 0.5000 0.0000   x coordinate   4.9472
     high-symmetry point:  0.7500 0.7500 0.0000   x coordinate   5.3007

     Plottable bands (eV) written to file bands.out.gnu
     Bands written to file bands.out

 **************************************************************************

                    xk=(   0.00000,   1.00000,   0.50000  )

     point group D_2d (-42m)
     there are  5 classes
     the character table:

       E     2S4   C2    2C2'  2s_d 
A_1    1.00  1.00  1.00  1.00  1.00
A_2    1.00  1.00  1.00 -1.00 -1.00
B_1    1.00 -1.00  1.00  1.00 -1.00
B_2    1.00 -1.00  1.00 -1.00  1.00
E      2.00  0.00 -2.00  0.00  0.00

     the symmetry operations in each class and the name of the first element:

     E        1
                                                                 
     2S4      7    8
                                                                 
     C2       2
                                                                 
     2C2'     3    4
                                                                 
     2s_d     5    6
                                                                 

     Band symmetry, D_2d (-42m) point group:

     e(  1 -  1) =      8.41503  eV     1   --> B_2  X_3  W_2  
     e(  2 -  3) =      9.01764  eV     2   --> E    X_5  W_3  
     e(  4 -  4) =     10.30153  eV     1   --> A_1  X_1  W_1  
     e(  5 -  5) =     11.05071  eV     1   --> B_1  X_2  W_1' 
     e(  6 -  7) =     18.72364  eV     2   --> E    X_5  W_3  
     e(  8 -  8) =     20.82795  eV     1   --> B_2  X_3  W_2  
     e(  9 -  9) =     21.29101  eV     1   --> A_1  X_1  W_1  

 **************************************************************************

 **************************************************************************

                    xk=(   0.02500,   0.92500,   0.50000  )

     point group C_1 (1)    
     there are  1 classes
     the character table:

       E    
A      1.00

     the symmetry operations in each class and the name of the first element:

     E        1
                                                                 

     Band symmetry, C_1 (1)     point group:

     e(  1 -  1) =      8.44279  eV     1   --> A              
     e(  2 -  2) =      8.97912  eV     1   --> A              
     e(  3 -  3) =      9.03006  eV     1   --> A              
     e(  4 -  4) =     10.30132  eV     1   --> A              
     e(  5 -  5) =     11.01795  eV     1   --> A              
     e(  6 -  6) =     17.90937  eV     1   --> A              
     e(  7 -  7) =     18.70279  eV     1   --> A              
     e(  8 -  8) =     21.21938  eV     1   --> A              
     e(  9 -  9) =     22.03324  eV     1   --> A              

 **************************************************************************

 **************************************************************************

                    xk=(   0.05000,   0.85000,   0.50000  )

     Band symmetry, C_1 (1)     point group:

     e(  1 -  1) =      8.52111  eV     1   --> A              
     e(  2 -  2) =      8.87091  eV     1   --> A              
     e(  3 -  3) =      9.06547  eV     1   --> A              
     e(  4 -  4) =     10.28895  eV     1   --> A              
     e(  5 -  5) =     10.93101  eV     1   --> A              
     e(  6 -  6) =     16.61770  eV     1   --> A              
     e(  7 -  7) =     18.67434  eV     1   --> A              
     e(  8 -  8) =     21.75691  eV     1   --> A              
     e(  9 -  9) =     23.70515  eV     1   --> A              

 **************************************************************************

 **************************************************************************

                    xk=(   0.07500,   0.77500,   0.50000  )

     Band symmetry, C_1 (1)     point group:

     e(  1 -  1) =      8.61187  eV     1   --> A              
     e(  2 -  2) =      8.73965  eV     1   --> A              
     e(  3 -  3) =      9.12017  eV     1   --> A              
     e(  4 -  4) =     10.23901  eV     1   --> A              
     e(  5 -  5) =     10.82338  eV     1   --> A              
     e(  6 -  6) =     15.38213  eV     1   --> A              
     e(  7 -  7) =     18.69331  eV     1   --> A              
     e(  8 -  8) =     22.51432  eV     1   --> A              
     e(  9 -  9) =     25.62789  eV     1   --> A              

 **************************************************************************

 **************************************************************************

                    xk=(   0.10000,   0.70000,   0.50000  )

     Band symmetry, C_1 (1)     point group:

     e(  1 -  1) =      8.45762  eV     1   --> A              
     e(  2 -  2) =      8.84296  eV     1   --> A              
     e(  3 -  3) =      9.18851  eV     1   --> A              
     e(  4 -  4) =     10.13549  eV     1   --> A              
     e(  5 -  5) =     10.72761  eV     1   --> A              
     e(  6 -  6) =     14.28505  eV     1   --> A              
     e(  7 -  7) =     18.79116  eV     1   --> A              
     e(  8 -  8) =     23.46362  eV     1   --> A              
     e(  9 -  9) =     27.69175  eV     1   --> A              

 **************************************************************************

 **************************************************************************

                    xk=(   0.12500,   0.62500,   0.50000  )

     Band symmetry, C_1 (1)     point group:

     e(  1 -  1) =      8.20631  eV     1   --> A              
     e(  2 -  2) =      9.02409  eV     1   --> A              
     e(  3 -  3) =      9.26265  eV     1   --> A              
     e(  4 -  4) =      9.99827  eV     1   --> A              
     e(  5 -  5) =     10.65092  eV     1   --> A              
     e(  6 -  6) =     13.35202  eV     1   --> A              
     e(  7 -  7) =     18.98006  eV     1   --> A              
     e(  8 -  8) =     24.57584  eV     1   --> A              
     e(  9 -  9) =     29.85373  eV     1   --> A              

 **************************************************************************

 **************************************************************************

                    xk=(   0.15000,   0.55000,   0.50000  )

     Band symmetry, C_1 (1)     point group:

     e(  1 -  1) =      7.92431  eV     1   --> A              
     e(  2 -  2) =      9.19900  eV     1   --> A              
     e(  3 -  3) =      9.33136  eV     1   --> A              
     e(  4 -  4) =      9.86812  eV     1   --> A              
     e(  5 -  5) =     10.58993  eV     1   --> A              
     e(  6 -  6) =     12.59135  eV     1   --> A              
     e(  7 -  7) =     19.26520  eV     1   --> A              
     e(  8 -  8) =     25.83090  eV     1   --> A              
     e(  9 -  9) =     32.03671  eV     1   --> A              

 **************************************************************************

 **************************************************************************

                    xk=(   0.17500,   0.47500,   0.50000  )

     Band symmetry, C_1 (1)     point group:

     e(  1 -  1) =      7.63222  eV     1   --> A              
     e(  2 -  2) =      9.32745  eV     1   --> A              
     e(  3 -  3) =      9.37507  eV     1   --> A              
     e(  4 -  4) =      9.78205  eV     1   --> A              
     e(  5 -  5) =     10.56208  eV     1   --> A              
     e(  6 -  6) =     11.99619  eV     1   --> A              
     e(  7 -  7) =     19.65158  eV     1   --> A              
     e(  8 -  8) =     27.21223  eV     1   --> A              
     e(  9 -  9) =     33.35425  eV     1   --> A              

 **************************************************************************

 **************************************************************************

                    xk=(   0.20000,   0.40000,   0.50000  )

     Band symmetry, C_1 (1)     point group:

     e(  1 -  1) =      7.35414  eV     1   --> A              
     e(  2 -  2) =      9.33254  eV     1   --> A              
     e(  3 -  3) =      9.42351  eV     1   --> A              
     e(  4 -  4) =      9.75270  eV     1   --> A              
     e(  5 -  5) =     10.60013  eV     1   --> A              
     e(  6 -  6) =     11.54229  eV     1   --> A              
     e(  7 -  7) =     20.14604  eV     1   --> A              
     e(  8 -  8) =     28.69735  eV     1   --> A              
     e(  9 -  9) =     32.96336  eV     1   --> A              

 **************************************************************************

 **************************************************************************

                    xk=(   0.22500,   0.32500,   0.50000  )

     Band symmetry, C_1 (1)     point group:

     e(  1 -  1) =      7.11671  eV     1   --> A              
     e(  2 -  2) =      9.24542  eV     1   --> A              
     e(  3 -  3) =      9.47288  eV     1   --> A              
     e(  4 -  4) =      9.75523  eV     1   --> A              
     e(  5 -  5) =     10.70654  eV     1   --> A              
     e(  6 -  6) =     11.19553  eV     1   --> A              
     e(  7 -  7) =     20.75681  eV     1   --> A              
     e(  8 -  8) =     30.22375  eV     1   --> A              
     e(  9 -  9) =     32.51847  eV     1   --> A              

 **************************************************************************

 **************************************************************************

                    xk=(   0.25000,   0.25000,   0.50000  )

     point group C_s (m)    
     there are  2 classes
     the character table:

       E     s    
A'     1.00  1.00
A''    1.00 -1.00

     the symmetry operations in each class and the name of the first element:

     E        1
                                                                 
     s        2
                                                                 

     Band symmetry, C_s (m)     point group:

     e(  1 -  1) =      6.94303  eV     1   --> A'             
     e(  2 -  2) =      9.13679  eV     1   --> A'             
     e(  3 -  3) =      9.49633  eV     1   --> A'             
     e(  4 -  4) =      9.78536  eV     1   --> A''            
     e(  5 -  5) =     10.80371  eV     1   --> A''            
     e(  6 -  6) =     10.96407  eV     1   --> A'             
     e(  7 -  7) =     21.49153  eV     1   --> A'             
     e(  8 -  8) =     31.24270  eV     1   --> A''            
     e(  9 -  9) =     31.96794  eV     1   --> A'             

 **************************************************************************

 **************************************************************************

                    xk=(   0.27500,   0.17500,   0.50000  )

     point group C_1 (1)    
     there are  1 classes
     the character table:

       E    
A      1.00

     the symmetry operations in each class and the name of the first element:

     E        1
                                                                 

     Band symmetry, C_1 (1)     point group:

     e(  1 -  1) =      6.84986  eV     1   --> A              
     e(  2 -  2) =      9.03838  eV     1   --> A              
     e(  3 -  3) =      9.48968  eV     1   --> A              
     e(  4 -  4) =      9.85973  eV     1   --> A              
     e(  5 -  5) =     10.63559  eV     1   --> A              
     e(  6 -  6) =     11.04605  eV     1   --> A              
     e(  7 -  7) =     22.35478  eV     1   --> A              
     e(  8 -  8) =     29.68102  eV     1   --> A              
     e(  9 -  9) =     32.08658  eV     1   --> A              

 **************************************************************************

 **************************************************************************

                    xk=(   0.30000,   0.10000,   0.50000  )

     Band symmetry, C_1 (1)     point group:

     e(  1 -  1) =      6.84404  eV     1   --> A              
     e(  2 -  2) =      8.96715  eV     1   --> A              
     e(  3 -  3) =      9.46060  eV     1   --> A              
     e(  4 -  4) =      9.97456  eV     1   --> A              
     e(  5 -  5) =     10.42624  eV     1   --> A              
     e(  6 -  6) =     11.18320  eV     1   --> A              
     e(  7 -  7) =     23.34270  eV     1   --> A              
     e(  8 -  8) =     27.64265  eV     1   --> A              
     e(  9 -  9) =     32.11229  eV     1   --> A              

 **************************************************************************

 **************************************************************************

                    xk=(   0.32500,   0.02500,   0.50000  )

     Band symmetry, C_1 (1)     point group:

     e(  1 -  1) =      6.92086  eV     1   --> A              
     e(  2 -  2) =      8.93570  eV     1   --> A              
     e(  3 -  3) =      9.42691  eV     1   --> A              
     e(  4 -  4) =     10.10889  eV     1   --> A              
     e(  5 -  5) =     10.24132  eV     1   --> A              
     e(  6 -  6) =     11.30410  eV     1   --> A              
     e(  7 -  7) =     24.37991  eV     1   --> A              
     e(  8 -  8) =     25.71463  eV     1   --> A              
     e(  9 -  9) =     32.19560  eV     1   --> A              

 **************************************************************************

 **************************************************************************

                    xk=(   0.35000,  -0.05000,   0.50000  )

     Band symmetry, C_1 (1)     point group:

     e(  1 -  1) =      7.05972  eV     1   --> A              
     e(  2 -  2) =      8.96379  eV     1   --> A              
     e(  3 -  3) =      9.40452  eV     1   --> A              
     e(  4 -  4) =     10.04184  eV     1   --> A              
     e(  5 -  5) =     10.29072  eV     1   --> A              
     e(  6 -  6) =     11.40373  eV     1   --> A              
     e(  7 -  7) =     23.56397  eV     1   --> A              
     e(  8 -  8) =     25.86364  eV     1   --> A              
     e(  9 -  9) =     32.36661  eV     1   --> A              

 **************************************************************************

 **************************************************************************

                    xk=(   0.37500,  -0.12500,   0.50000  )

     Band symmetry, C_1 (1)     point group:

     e(  1 -  1) =      7.22057  eV     1   --> A              
     e(  2 -  2) =      9.08531  eV     1   --> A              
     e(  3 -  3) =      9.40147  eV     1   --> A              
     e(  4 -  4) =      9.88739  eV     1   --> A              
     e(  5 -  5) =     10.44929  eV     1   --> A              
     e(  6 -  6) =     11.48267  eV     1   --> A              
     e(  7 -  7) =     21.79675  eV     1   --> A              
     e(  8 -  8) =     27.20939  eV     1   --> A              
     e(  9 -  9) =     32.62503  eV     1   --> A              

 **************************************************************************

 **************************************************************************

                    xk=(   0.40000,  -0.20000,   0.50000  )

     Band symmetry, C_1 (1)     point group:

     e(  1 -  1) =      7.35414  eV     1   --> A              
     e(  2 -  2) =      9.33254  eV     1   --> A              
     e(  3 -  3) =      9.42351  eV     1   --> A              
     e(  4 -  4) =      9.75270  eV     1   --> A              
     e(  5 -  5) =     10.60013  eV     1   --> A              
     e(  6 -  6) =     11.54229  eV     1   --> A              
     e(  7 -  7) =     20.14604  eV     1   --> A              
     e(  8 -  8) =     28.69735  eV     1   --> A              
     e(  9 -  9) =     32.96336  eV     1   --> A              

 **************************************************************************

 **************************************************************************

                    xk=(   0.42500,  -0.27500,   0.50000  )

     Band symmetry, C_1 (1)     point group:

     e(  1 -  1) =      7.43311  eV     1   --> A              
     e(  2 -  2) =      9.43415  eV     1   --> A              
     e(  3 -  3) =      9.63301  eV     1   --> A              
     e(  4 -  4) =      9.75507  eV     1   --> A              
     e(  5 -  5) =     10.72922  eV     1   --> A              
     e(  6 -  6) =     11.58219  eV     1   --> A              
     e(  7 -  7) =     18.67409  eV     1   --> A              
     e(  8 -  8) =     30.27926  eV     1   --> A              
     e(  9 -  9) =     33.36469  eV     1   --> A              

 **************************************************************************

 **************************************************************************

                    xk=(   0.45000,  -0.35000,   0.50000  )

     Band symmetry, C_1 (1)     point group:

     e(  1 -  1) =      7.46610  eV     1   --> A              
     e(  2 -  2) =      9.46221  eV     1   --> A              
     e(  3 -  3) =      9.55670  eV     1   --> A              
     e(  4 -  4) =     10.23716  eV     1   --> A              
     e(  5 -  5) =     10.82696  eV     1   --> A              
     e(  6 -  6) =     11.59668  eV     1   --> A              
     e(  7 -  7) =     17.44760  eV     1   --> A              
     e(  8 -  8) =     31.90076  eV     1   --> A              
     e(  9 -  9) =     33.78674  eV     1   --> A              

 **************************************************************************

 **************************************************************************

                    xk=(   0.47500,  -0.42500,   0.50000  )

     Band symmetry, C_1 (1)     point group:

     e(  1 -  1) =      7.47556  eV     1   --> A              
     e(  2 -  2) =      9.48223  eV     1   --> A              
     e(  3 -  3) =      9.50661  eV     1   --> A              
     e(  4 -  4) =     10.69497  eV     1   --> A              
     e(  5 -  5) =     10.88739  eV     1   --> A              
     e(  6 -  6) =     11.57571  eV     1   --> A              
     e(  7 -  7) =     16.58477  eV     1   --> A              
     e(  8 -  8) =     33.36375  eV     1   --> A              
     e(  9 -  9) =     34.15153  eV     1   --> A              

 **************************************************************************

 **************************************************************************

                    xk=(   0.50000,  -0.50000,   0.50000  )

     point group D_3d (-3m) 
     there are  6 classes
     the character table:

       E     2C3   3C2'  i     2S6   3s_d 
A_1g   1.00  1.00  1.00  1.00  1.00  1.00
A_2g   1.00  1.00 -1.00  1.00  1.00 -1.00
E_g    2.00 -1.00  0.00  2.00 -1.00  0.00
A_1u   1.00  1.00  1.00 -1.00 -1.00 -1.00
A_2u   1.00  1.00 -1.00 -1.00 -1.00  1.00
E_u    2.00 -1.00  0.00 -2.00  1.00  0.00

     the symmetry operations in each class and the name of the first element:

     E        1
                                                                 
     2C3      5    6
                                                                 
     3C2'     2    4    3
                                                                 
     i        7
                                                                 
     2S6     11   12
                                                                 
     3s_d     8   10    9
                                                                 

     Band symmetry, D_3d (-3m)  point group:

     e(  1 -  1) =      7.47669  eV     1   --> A_1g L_1       
     e(  2 -  3) =      9.48954  eV     2   --> E_g  L_3       
     e(  4 -  5) =     10.90773  eV     2   --> E_g  L_3       
     e(  6 -  6) =     11.54506  eV     1   --> A_2u L_2'      
     e(  7 -  7) =     16.26213  eV     1   --> A_1g L_1       
     e(  8 -  8) =     33.85210  eV     1   --> A_2u L_2'      
     e(  9 -  9) =     34.55471  eV     1   -->   ?

 **************************************************************************

 **************************************************************************

                    xk=(   0.47500,  -0.47500,   0.47500  )

     point group C_3v (3m)  
     there are  3 classes
     the character table:

       E     2C3   3s_v 
A_1    1.00  1.00  1.00
A_2    1.00  1.00 -1.00
E      2.00 -1.00  0.00

     the symmetry operations in each class and the name of the first element:

     E        1
                                                                 
     2C3      2    3
                                                                 
     3s_v     4    5    6
                                                                 

     Band symmetry, C_3v (3m)   point group:

     e(  1 -  1) =      7.46379  eV     1   --> A_1  L_1       
     e(  2 -  3) =      9.49254  eV     2   --> E    L_3       
     e(  4 -  5) =     10.90071  eV     2   --> E    L_3       
     e(  6 -  6) =     11.42376  eV     1   --> A_1  L_1       
     e(  7 -  7) =     16.43999  eV     1   --> A_1  L_1       
     e(  8 -  8) =     33.86944  eV     1   --> A_1  L_1       
     e(  9 -  9) =     34.55815  eV     1   -->   ?

 **************************************************************************

 **************************************************************************

                    xk=(   0.45000,  -0.45000,   0.45000  )

     Band symmetry, C_3v (3m)   point group:

     e(  1 -  1) =      7.42249  eV     1   --> A_1  L_1       
     e(  2 -  3) =      9.50143  eV     2   --> E    L_3       
     e(  4 -  5) =     10.87995  eV     2   --> E    L_3       
     e(  6 -  6) =     11.11137  eV     1   --> A_1  L_1       
     e(  7 -  7) =     16.92454  eV     1   --> A_1  L_1       
     e(  8 -  8) =     33.92114  eV     1   -->   ?
     e(  9 -  9) =     34.56940  eV     1   -->   ?

 **************************************************************************

 **************************************************************************

                    xk=(   0.42500,  -0.42500,   0.42500  )

     Band symmetry, C_3v (3m)   point group:

     e(  1 -  1) =      7.34435  eV     1   --> A_1  L_1       
     e(  2 -  3) =      9.51587  eV     2   --> E    L_3       
     e(  4 -  4) =     10.70813  eV     1   --> A_1  L_1       
     e(  5 -  6) =     10.84632  eV     2   --> E    L_3       
     e(  7 -  7) =     17.62291  eV     1   --> A_1  L_1       
     e(  8 -  8) =     34.00568  eV     1   --> A_1  L_1       
     e(  9 -  9) =     34.59090  eV     1   -->   ?

 **************************************************************************

 **************************************************************************

                    xk=(   0.40000,  -0.40000,   0.40000  )

     Band symmetry, C_3v (3m)   point group:

     e(  1 -  1) =      7.21823  eV     1   --> A_1  L_1       
     e(  2 -  3) =      9.53518  eV     2   --> E    L_3       
     e(  4 -  4) =     10.29861  eV     1   --> A_1  L_1       
     e(  5 -  6) =     10.80109  eV     2   --> E    L_3       
     e(  7 -  7) =     18.46247  eV     1   --> A_1  L_1       
     e(  8 -  8) =     34.12119  eV     1   --> A_1  L_1       
     e(  9 -  9) =     34.62585  eV     1   -->   ?

 **************************************************************************

 **************************************************************************

                    xk=(   0.37500,  -0.37500,   0.37500  )

     Band symmetry, C_3v (3m)   point group:

     e(  1 -  1) =      7.03018  eV     1   --> A_1  L_1       
     e(  2 -  3) =      9.55881  eV     2   --> E    L_3       
     e(  4 -  4) =      9.93892  eV     1   --> A_1  L_1       
     e(  5 -  6) =     10.74627  eV     2   --> E    L_3       
     e(  7 -  7) =     19.39971  eV     1   --> A_1  L_1       
     e(  8 -  8) =     34.26461  eV     1   -->   ?
     e(  9 -  9) =     34.67773  eV     1   -->   ?

 **************************************************************************

 **************************************************************************

                    xk=(   0.35000,  -0.35000,   0.35000  )

     Band symmetry, C_3v (3m)   point group:

     e(  1 -  1) =      6.77298  eV     1   --> A_1  L_1       
     e(  2 -  3) =      9.58487  eV     2   --> E    L_3       
     e(  4 -  4) =      9.65960  eV     1   --> A_1  L_1       
     e(  5 -  6) =     10.68402  eV     2   --> E    L_3       
     e(  7 -  7) =     20.40979  eV     1   --> A_1  L_1       
     e(  8 -  8) =     34.43139  eV     1   --> A_1  L_1       
     e(  9 -  9) =     34.74926  eV     1   -->   ?

 **************************************************************************

 **************************************************************************

                    xk=(   0.32500,  -0.32500,   0.32500  )

     Band symmetry, C_3v (3m)   point group:

     e(  1 -  1) =      6.45355  eV     1   --> A_1  L_1       
     e(  2 -  2) =      9.46725  eV     1   --> A_1  L_1       
     e(  3 -  4) =      9.61226  eV     2   --> E    L_3       
     e(  5 -  6) =     10.61758  eV     2   --> E    L_3       
     e(  7 -  7) =     21.47801  eV     1   --> A_1  L_1       
     e(  8 -  8) =     34.61685  eV     1   --> A_1  L_1       
     e(  9 -  9) =     34.84302  eV     1   -->   ?

 **************************************************************************

 **************************************************************************

                    xk=(   0.30000,  -0.30000,   0.30000  )

     Band symmetry, C_3v (3m)   point group:

     e(  1 -  1) =      6.09096  eV     1   --> A_1  L_1       
     e(  2 -  2) =      9.35046  eV     1   --> A_1  L_1       
     e(  3 -  4) =      9.63863  eV     2   --> E    L_3       
     e(  5 -  6) =     10.54958  eV     2   --> E    L_3       
     e(  7 -  7) =     22.59508  eV     1   --> A_1  L_1       
     e(  8 -  8) =     34.96043  eV     1   -->   ?
     e(  9 -  9) =     34.96070  eV     1   -->   ?

 **************************************************************************

 **************************************************************************

                    xk=(   0.27500,  -0.27500,   0.27500  )

     Band symmetry, C_3v (3m)   point group:

     e(  1 -  1) =      5.70793  eV     1   --> A_1  L_1       
     e(  2 -  2) =      9.29066  eV     1   --> A_1  L_1       
     e(  3 -  4) =      9.66126  eV     2   --> E    L_3       
     e(  5 -  6) =     10.48400  eV     2   --> E    L_3       
     e(  7 -  7) =     23.75460  eV     1   --> A_1  L_1       
     e(  8 -  8) =     35.10260  eV     1   -->   ?
     e(  9 -  9) =     35.10350  eV     1   -->   ?

 **************************************************************************

 **************************************************************************

                    xk=(   0.25000,  -0.25000,   0.25000  )

     Band symmetry, C_3v (3m)   point group:

     e(  1 -  1) =      5.32418  eV     1   --> A_1  L_1       
     e(  2 -  2) =      9.27129  eV     1   --> A_1  L_1       
     e(  3 -  4) =      9.67808  eV     2   --> E    L_3       
     e(  5 -  6) =     10.42538  eV     2   --> E    L_3       
     e(  7 -  7) =     24.95188  eV     1   --> A_1  L_1       
     e(  8 -  8) =     35.21713  eV     1   -->   ?
     e(  9 -  9) =     35.27283  eV     1   -->   ?

 **************************************************************************

 **************************************************************************

                    xk=(   0.22500,  -0.22500,   0.22500  )

     Band symmetry, C_3v (3m)   point group:

     e(  1 -  1) =      4.95412  eV     1   --> A_1  L_1       
     e(  2 -  2) =      9.27834  eV     1   --> A_1  L_1       
     e(  3 -  4) =      9.68573  eV     2   --> E    L_3       
     e(  5 -  6) =     10.37693  eV     2   --> E    L_3       
     e(  7 -  7) =     26.18283  eV     1   --> A_1  L_1       
     e(  8 -  8) =     35.40616  eV     1   --> A_1  L_1       
     e(  9 -  9) =     35.46902  eV     1   -->   ?

 **************************************************************************

 **************************************************************************

                    xk=(   0.20000,  -0.20000,   0.20000  )

     Band symmetry, C_3v (3m)   point group:

     e(  1 -  1) =      4.60788  eV     1   --> A_1  L_1       
     e(  2 -  2) =      9.30261  eV     1   --> A_1  L_1       
     e(  3 -  4) =      9.68216  eV     2   --> E    L_3       
     e(  5 -  6) =     10.34175  eV     2   --> E    L_3       
     e(  7 -  7) =     27.44361  eV     1   --> A_1  L_1       
     e(  8 -  8) =     35.69192  eV     1   -->   ?
     e(  9 -  9) =     35.69223  eV     1   -->   ?

 **************************************************************************

 **************************************************************************

                    xk=(   0.17500,  -0.17500,   0.17500  )

     Band symmetry, C_3v (3m)   point group:

     e(  1 -  1) =      4.29235  eV     1   --> A_1  L_1       
     e(  2 -  2) =      9.33644  eV     1   --> A_1  L_1       
     e(  3 -  4) =      9.66751  eV     2   --> E    L_3       
     e(  5 -  6) =     10.32095  eV     2   --> E    L_3       
     e(  7 -  7) =     28.72965  eV     1   --> A_1  L_1       
     e(  8 -  8) =     35.72650  eV     1   --> A_1  L_1       
     e(  9 -  9) =     35.94216  eV     1   -->   ?

 **************************************************************************

 **************************************************************************

                    xk=(   0.15000,  -0.15000,   0.15000  )

     Band symmetry, C_3v (3m)   point group:

     e(  1 -  1) =      4.01233  eV     1   --> A_1  L_1       
     e(  2 -  2) =      9.37477  eV     1   --> A_1  L_1       
     e(  3 -  4) =      9.64429  eV     2   --> E    L_3       
     e(  5 -  6) =     10.31244  eV     2   --> E    L_3       
     e(  7 -  7) =     30.03473  eV     1   --> A_1  L_1       
     e(  8 -  8) =     35.85275  eV     1   -->   ?
     e(  9 -  9) =     36.21771  eV     1   -->   ?

 **************************************************************************

 **************************************************************************

                    xk=(   0.12500,  -0.12500,   0.12500  )

     Band symmetry, C_3v (3m)   point group:

     e(  1 -  1) =      3.77117  eV     1   --> A_1  L_1       
     e(  2 -  2) =      9.41337  eV     1   --> A_1  L_1       
     e(  3 -  4) =      9.61576  eV     2   --> E    L_3       
     e(  5 -  6) =     10.31296  eV     2   --> E    L_3       
     e(  7 -  7) =     31.34805  eV     1   --> A_1  L_1       
     e(  8 -  8) =     35.96204  eV     1   --> A_1  L_1       
     e(  9 -  9) =     36.51572  eV     1   -->   ?

 **************************************************************************

 **************************************************************************

                    xk=(   0.10000,  -0.10000,   0.10000  )

     Band symmetry, C_3v (3m)   point group:

     e(  1 -  1) =      3.57124  eV     1   --> A_1  L_1       
     e(  2 -  2) =      9.44966  eV     1   --> A_1  L_1       
     e(  3 -  4) =      9.58666  eV     2   --> E    L_3       
     e(  5 -  6) =     10.31918  eV     2   --> E    L_3       
     e(  7 -  7) =     32.64721  eV     1   --> A_1  L_1       
     e(  8 -  8) =     36.07251  eV     1   --> A_1  L_1       
     e(  9 -  9) =     36.83099  eV     1   -->   ?

 **************************************************************************

 **************************************************************************

                    xk=(   0.07500,  -0.07500,   0.07500  )

     Band symmetry, C_3v (3m)   point group:

     e(  1 -  1) =      3.41423  eV     1   --> A_1  L_1       
     e(  2 -  2) =      9.48014  eV     1   --> A_1  L_1       
     e(  3 -  4) =      9.56051  eV     2   --> E    L_3       
     e(  5 -  6) =     10.32723  eV     2   --> E    L_3       
     e(  7 -  7) =     33.87167  eV     1   --> A_1  L_1       
     e(  8 -  8) =     36.23450  eV     1   --> A_1  L_1       
     e(  9 -  9) =     37.15214  eV     1   -->   ?

 **************************************************************************

 **************************************************************************

                    xk=(   0.05000,  -0.05000,   0.05000  )

     Band symmetry, C_3v (3m)   point group:

     e(  1 -  1) =      3.30132  eV     1   --> A_1  L_1       
     e(  2 -  2) =      9.50302  eV     1   --> A_1  L_1       
     e(  3 -  4) =      9.53979  eV     2   --> E    L_3       
     e(  5 -  6) =     10.33449  eV     2   --> E    L_3       
     e(  7 -  7) =     34.84490  eV     1   --> A_1  L_1       
     e(  8 -  8) =     36.59675  eV     1   --> A_1  L_1       
     e(  9 -  9) =     37.45541  eV     1   -->   ?

 **************************************************************************

 **************************************************************************

                    xk=(   0.02500,  -0.02500,   0.02500  )

     Band symmetry, C_3v (3m)   point group:

     e(  1 -  1) =      3.23328  eV     1   --> A_1  L_1       
     e(  2 -  2) =      9.51745  eV     1   --> A_1  L_1       
     e(  3 -  4) =      9.52680  eV     2   --> E    L_3       
     e(  5 -  6) =     10.33961  eV     2   --> E    L_3       
     e(  7 -  7) =     35.32590  eV     1   --> A_1  L_1       
     e(  8 -  8) =     37.30048  eV     1   --> A_1  L_1       
     e(  9 -  9) =     37.69272  eV     1   -->   ?

 **************************************************************************

 **************************************************************************

                    xk=(   0.00000,   0.00000,   0.00000  )

     point group O_h (m-3m) 
     there are 10 classes
     the character table:

       E     8C3   3C2   6C4   6C2'  i     8S6   3s_h  6S4   6s_d 
A_1g   1.00  1.00  1.00  1.00  1.00  1.00  1.00  1.00  1.00  1.00
A_2g   1.00  1.00  1.00 -1.00 -1.00  1.00  1.00  1.00 -1.00 -1.00
E_g    2.00 -1.00  2.00  0.00  0.00  2.00 -1.00  2.00  0.00  0.00
T_1g   3.00  0.00 -1.00  1.00 -1.00  3.00  0.00 -1.00  1.00 -1.00
T_2g   3.00  0.00 -1.00 -1.00  1.00  3.00  0.00 -1.00 -1.00  1.00
A_1u   1.00  1.00  1.00  1.00  1.00 -1.00 -1.00 -1.00 -1.00 -1.00
A_2u   1.00  1.00  1.00 -1.00 -1.00 -1.00 -1.00 -1.00  1.00  1.00
E_u    2.00 -1.00  2.00  0.00  0.00 -2.00  1.00 -2.00  0.00  0.00
T_1u   3.00  0.00 -1.00  1.00 -1.00 -3.00  0.00  1.00 -1.00  1.00
T_2u   3.00  0.00 -1.00 -1.00  1.00 -3.00  0.00  1.00  1.00 -1.00

     the symmetry operations in each class and the name of the first element:

     E        1
                                                                 
     8C3     17   19   20   18   24   21   22   23
                                                                 
     3C2      2    4    3
                                                                 
     6C4      7    8   15   16   12   11
                                                                 
     6C2'     5    6   14   13   10    9
                                                                 
     i       25
                                                                 
     8S6     41   43   44   42   48   45   46   47
                                                                 
     3s_h    26   28   27
                                                                 
     6S4     31   32   39   40   36   35
                                                                 
     6s_d    29   30   38   37   34   33
                                                                 

     Band symmetry, O_h (m-3m)  point group:

     e(  1 -  1) =      3.21055  eV     1   --> A_1g G_1   G_1+
     e(  2 -  4) =      9.52236  eV     3   --> T_2g G_25' G_5+
     e(  5 -  6) =     10.34142  eV     2   --> E_g  G_12  G_3+
     e(  7 -  7) =     35.44014  eV     1   --> A_2u G_2'  G_2-
     e(  8 -  9) =     37.78746  eV     2   -->   ?

 **************************************************************************

 **************************************************************************

                    xk=(   0.00000,   0.00000,   0.05000  )

     point group C_4v (4mm) 
     there are  5 classes
     the character table:

       E     2C4   C2    2s_v  2s_d 
A_1    1.00  1.00  1.00  1.00  1.00
A_2    1.00  1.00  1.00 -1.00 -1.00
B_1    1.00 -1.00  1.00  1.00 -1.00
B_2    1.00 -1.00  1.00 -1.00  1.00
E      2.00  0.00 -2.00  0.00  0.00

     the symmetry operations in each class and the name of the first element:

     E        1
                                                                 
     2C4      3    4
                                                                 
     C2       2
                                                                 
     2s_v     5    6
                                                                 
     2s_d     7    8
                                                                 

     Band symmetry, C_4v (4mm)  point group:

     e(  1 -  1) =      3.24085  eV     1   --> A_1  G_1 D_1   
     e(  2 -  2) =      9.51334  eV     1   --> B_2  G_4 D_2'  
     e(  3 -  4) =      9.52955  eV     2   --> E    G_5 D_5   
     e(  5 -  5) =     10.33324  eV     1   --> A_1  G_1 D_1   
     e(  6 -  6) =     10.34472  eV     1   --> B_1  G_3 D_2   
     e(  7 -  7) =     35.30957  eV     1   --> B_2  G_4 D_2'  
     e(  8 -  8) =     37.37742  eV     1   -->   ?
     e(  9 -  9) =     37.37758  eV     1   -->   ?

 **************************************************************************

 **************************************************************************

                    xk=(   0.00000,   0.00000,   0.10000  )

     Band symmetry, C_4v (4mm)  point group:

     e(  1 -  1) =      3.33153  eV     1   --> A_1  G_1 D_1   
     e(  2 -  2) =      9.48654  eV     1   --> B_2  G_4 D_2'  
     e(  3 -  4) =      9.55107  eV     2   --> E    G_5 D_5   
     e(  5 -  5) =     10.30901  eV     1   --> A_1  G_1 D_1   
     e(  6 -  6) =     10.35455  eV     1   --> B_1  G_3 D_2   
     e(  7 -  7) =     34.97044  eV     1   --> B_2  G_4 D_2'  
     e(  8 -  9) =     36.54707  eV     2   --> E    G_5 D_5   

 **************************************************************************

 **************************************************************************

                    xk=(   0.00000,   0.00000,   0.15000  )

     Band symmetry, C_4v (4mm)  point group:

     e(  1 -  1) =      3.48190  eV     1   --> A_1  G_1 D_1   
     e(  2 -  2) =      9.44272  eV     1   --> B_2  G_4 D_2'  
     e(  3 -  4) =      9.58698  eV     2   --> E    G_5 D_5   
     e(  5 -  5) =     10.26997  eV     1   --> A_1  G_1 D_1   
     e(  6 -  6) =     10.37072  eV     1   --> B_1  G_3 D_2   
     e(  7 -  7) =     34.51945  eV     1   --> B_2  G_4 D_2'  
     e(  8 -  9) =     35.61795  eV     2   --> E    G_5 D_5   

 **************************************************************************

 **************************************************************************

                    xk=(   0.00000,   0.00000,   0.20000  )

     Band symmetry, C_4v (4mm)  point group:

     e(  1 -  1) =      3.69074  eV     1   --> A_1  G_1 D_1   
     e(  2 -  2) =      9.38313  eV     1   --> B_2  G_4 D_2'  
     e(  3 -  4) =      9.63676  eV     2   --> E    G_5 D_5   
     e(  5 -  5) =     10.21807  eV     1   --> A_1  G_1 D_1   
     e(  6 -  6) =     10.39300  eV     1   --> B_1  G_3 D_2   
     e(  7 -  7) =     34.02847  eV     1   --> B_2  G_4 D_2'  
     e(  8 -  9) =     34.67535  eV     2   --> E    G_5 D_5   

 **************************************************************************

 **************************************************************************

                    xk=(   0.00000,   0.00000,   0.25000  )

     Band symmetry, C_4v (4mm)  point group:

     e(  1 -  1) =      3.95612  eV     1   --> A_1  G_1 D_1   
     e(  2 -  2) =      9.30938  eV     1   --> B_2  G_4 D_2'  
     e(  3 -  4) =      9.69961  eV     2   --> E    G_5 D_5   
     e(  5 -  5) =     10.15481  eV     1   --> A_1  G_1 D_1   
     e(  6 -  6) =     10.42061  eV     1   --> B_1  G_3 D_2   
     e(  7 -  7) =     33.53750  eV     1   --> B_2  G_4 D_2'  
     e(  8 -  9) =     33.74589  eV     2   --> E    G_5 D_5   

 **************************************************************************

 **************************************************************************

                    xk=(   0.00000,   0.00000,   0.30000  )

     Band symmetry, C_4v (4mm)  point group:

     e(  1 -  1) =      4.27521  eV     1   --> A_1  G_1 D_1   
     e(  2 -  2) =      9.22362  eV     1   --> B_2  G_4 D_2'  
     e(  3 -  4) =      9.77512  eV     2   --> E    G_5 D_5   
     e(  5 -  5) =     10.08494  eV     1   --> A_1  G_1 D_1   
     e(  6 -  6) =     10.45284  eV     1   --> B_1  G_3 D_2   
     e(  7 -  8) =     32.84150  eV     2   --> E    G_5 D_5   
     e(  9 -  9) =     33.06719  eV     1   --> B_2  G_4 D_2'  

 **************************************************************************

 **************************************************************************

                    xk=(   0.00000,   0.00000,   0.35000  )

     Band symmetry, C_4v (4mm)  point group:

     e(  1 -  1) =      4.64380  eV     1   --> A_1  G_1 D_1   
     e(  2 -  2) =      9.12789  eV     1   --> B_2  G_4 D_2'  
     e(  3 -  4) =      9.86200  eV     2   --> E    G_5 D_5   
     e(  5 -  5) =     10.01366  eV     1   --> A_1  G_1 D_1   
     e(  6 -  6) =     10.48872  eV     1   --> B_1  G_3 D_2   
     e(  7 -  8) =     31.96898  eV     2   --> E    G_5 D_5   
     e(  9 -  9) =     32.62752  eV     1   --> B_2  G_4 D_2'  

 **************************************************************************

 **************************************************************************

                    xk=(   0.00000,   0.00000,   0.40000  )

     Band symmetry, C_4v (4mm)  point group:

     e(  1 -  1) =      5.05557  eV     1   --> A_1  G_1 D_1   
     e(  2 -  2) =      9.02521  eV     1   --> B_2  G_4 D_2'  
     e(  3 -  3) =      9.94866  eV     1   --> A_1  G_1 D_1   
     e(  4 -  5) =      9.95990  eV     2   --> E    G_5 D_5   
     e(  6 -  6) =     10.52810  eV     1   --> B_1  G_3 D_2   
     e(  7 -  8) =     31.13372  eV     2   --> E    G_5 D_5   
     e(  9 -  9) =     32.22377  eV     1   --> B_2  G_4 D_2'  

 **************************************************************************

 **************************************************************************

                    xk=(   0.00000,   0.00000,   0.45000  )

     Band symmetry, C_4v (4mm)  point group:

     e(  1 -  1) =      5.50074  eV     1   --> A_1  G_1 D_1   
     e(  2 -  2) =      8.91802  eV     1   --> B_2  G_4 D_2'  
     e(  3 -  3) =      9.90030  eV     1   --> A_1  G_1 D_1   
     e(  4 -  5) =     10.06659  eV     2   --> E    G_5 D_5   
     e(  6 -  6) =     10.56967  eV     1   --> B_1  G_3 D_2   
     e(  7 -  8) =     30.33973  eV     2   --> E    G_5 D_5   
     e(  9 -  9) =     31.85759  eV     1   --> B_2  G_4 D_2'  

 **************************************************************************

 **************************************************************************

                    xk=(   0.00000,   0.00000,   0.50000  )

     Band symmetry, C_4v (4mm)  point group:

     e(  1 -  1) =      5.96404  eV     1   --> A_1  G_1 D_1   
     e(  2 -  2) =      8.80906  eV     1   --> B_2  G_4 D_2'  
     e(  3 -  3) =      9.88661  eV     1   --> A_1  G_1 D_1   
     e(  4 -  5) =     10.18086  eV     2   --> E    G_5 D_5   
     e(  6 -  6) =     10.61246  eV     1   --> B_1  G_3 D_2   
     e(  7 -  8) =     29.59141  eV     2   --> E    G_5 D_5   
     e(  9 -  9) =     30.88896  eV     1   --> A_1  G_1 D_1   

 **************************************************************************

 **************************************************************************

                    xk=(   0.00000,   0.00000,   0.55000  )

     Band symmetry, C_4v (4mm)  point group:

     e(  1 -  1) =      6.42161  eV     1   --> A_1  G_1 D_1   
     e(  2 -  2) =      8.70105  eV     1   --> B_2  G_4 D_2'  
     e(  3 -  3) =      9.93159  eV     1   --> A_1  G_1 D_1   
     e(  4 -  5) =     10.30009  eV     2   --> E    G_5 D_5   
     e(  6 -  6) =     10.65539  eV     1   --> B_1  G_3 D_2   
     e(  7 -  8) =     28.89286  eV     2   --> E    G_5 D_5   
     e(  9 -  9) =     29.48126  eV     1   --> A_1  G_1 D_1   

 **************************************************************************

 **************************************************************************

                    xk=(   0.00000,   0.00000,   0.60000  )

     Band symmetry, C_4v (4mm)  point group:

     e(  1 -  1) =      6.83929  eV     1   --> A_1  G_1 D_1   
     e(  2 -  2) =      8.59617  eV     1   --> B_2  G_4 D_2'  
     e(  3 -  3) =     10.06958  eV     1   --> A_1  G_1 D_1   
     e(  4 -  5) =     10.42112  eV     2   --> E    G_5 D_5   
     e(  6 -  6) =     10.69733  eV     1   --> B_1  G_3 D_2   
     e(  7 -  7) =     28.04734  eV     1   --> A_1  G_1 D_1   
     e(  8 -  9) =     28.24842  eV     2   --> E    G_5 D_5   

 **************************************************************************

 **************************************************************************

                    xk=(   0.00000,   0.00000,   0.65000  )

     Band symmetry, C_4v (4mm)  point group:

     e(  1 -  1) =      7.17871  eV     1   --> A_1  G_1 D_1   
     e(  2 -  2) =      8.49793  eV     1   --> B_2  G_4 D_2'  
     e(  3 -  3) =     10.33792  eV     1   --> A_1  G_1 D_1   
     e(  4 -  5) =     10.54197  eV     2   --> E    G_5 D_5   
     e(  6 -  6) =     10.73739  eV     1   --> B_1  G_3 D_2   
     e(  7 -  7) =     26.62714  eV     1   --> A_1  G_1 D_1   
     e(  8 -  9) =     27.66292  eV     2   --> E    G_5 D_5   

 **************************************************************************

 **************************************************************************

                    xk=(   0.00000,   0.00000,   0.70000  )

     Band symmetry, C_4v (4mm)  point group:

     e(  1 -  1) =      7.41622  eV     1   --> A_1  G_1 D_1   
     e(  2 -  2) =      8.40774  eV     1   --> B_2  G_4 D_2'  
     e(  3 -  4) =     10.65813  eV     2   --> E    G_5 D_5   
     e(  5 -  5) =     10.75684  eV     1   --> A_1  G_1 D_1   
     e(  6 -  6) =     10.77448  eV     1   --> B_1  G_3 D_2   
     e(  7 -  7) =     25.24443  eV     1   --> A_1  G_1 D_1   
     e(  8 -  9) =     27.14108  eV     2   --> E    G_5 D_5   

 **************************************************************************

 **************************************************************************

                    xk=(   0.00000,   0.00000,   0.75000  )

     Band symmetry, C_4v (4mm)  point group:

     e(  1 -  1) =      7.55887  eV     1   --> A_1  G_1 D_1   
     e(  2 -  2) =      8.32787  eV     1   --> B_2  G_4 D_2'  
     e(  3 -  4) =     10.76612  eV     2   --> E    G_5 D_5   
     e(  5 -  5) =     10.80765  eV     1   --> B_1  G_3 D_2   
     e(  6 -  6) =     11.31320  eV     1   --> A_1  G_1 D_1   
     e(  7 -  7) =     23.91837  eV     1   --> A_1  G_1 D_1   
     e(  8 -  9) =     26.68797  eV     2   --> E    G_5 D_5   

 **************************************************************************

 **************************************************************************

                    xk=(   0.00000,   0.00000,   0.80000  )

     Band symmetry, C_4v (4mm)  point group:

     e(  1 -  1) =      7.63245  eV     1   --> A_1  G_1 D_1   
     e(  2 -  2) =      8.26006  eV     1   --> B_2  G_4 D_2'  
     e(  3 -  3) =     10.83606  eV     1   --> B_1  G_3 D_2   
     e(  4 -  5) =     10.86169  eV     2   --> E    G_5 D_5   
     e(  6 -  6) =     11.96616  eV     1   --> A_1  G_1 D_1   
     e(  7 -  7) =     22.67031  eV     1   --> A_1  G_1 D_1   
     e(  8 -  9) =     26.30856  eV     2   --> E    G_5 D_5   

 **************************************************************************

 **************************************************************************

                    xk=(   0.00000,   0.00000,   0.85000  )

     Band symmetry, C_4v (4mm)  point group:

     e(  1 -  1) =      7.66489  eV     1   --> A_1  G_1 D_1   
     e(  2 -  2) =      8.20538  eV     1   --> B_2  G_4 D_2'  
     e(  3 -  3) =     10.85958  eV     1   --> B_1  G_3 D_2   
     e(  4 -  5) =     10.94116  eV     2   --> E    G_5 D_5   
     e(  6 -  6) =     12.66093  eV     1   --> A_1  G_1 D_1   
     e(  7 -  7) =     21.53298  eV     1   --> A_1  G_1 D_1   
     e(  8 -  9) =     26.00759  eV     2   --> E    G_5 D_5   

 **************************************************************************

 **************************************************************************

                    xk=(   0.00000,   0.00000,   0.90000  )

     Band symmetry, C_4v (4mm)  point group:

     e(  1 -  1) =      7.67610  eV     1   --> A_1  G_1 D_1   
     e(  2 -  2) =      8.16576  eV     1   --> B_2  G_4 D_2'  
     e(  3 -  3) =     10.87638  eV     1   --> B_1  G_3 D_2   
     e(  4 -  5) =     11.00076  eV     2   --> E    G_5 D_5   
     e(  6 -  6) =     13.32281  eV     1   --> A_1  G_1 D_1   
     e(  7 -  7) =     20.56456  eV     1   --> A_1  G_1 D_1   
     e(  8 -  9) =     25.78923  eV     2   --> E    G_5 D_5   

 **************************************************************************

 **************************************************************************

                    xk=(   0.00000,   0.00000,   0.95000  )

     Band symmetry, C_4v (4mm)  point group:

     e(  1 -  1) =      7.67871  eV     1   --> A_1  G_1 D_1   
     e(  2 -  2) =      8.14173  eV     1   --> B_2  G_4 D_2'  
     e(  3 -  3) =     10.88664  eV     1   --> B_1  G_3 D_2   
     e(  4 -  5) =     11.03795  eV     2   --> E    G_5 D_5   
     e(  6 -  6) =     13.83485  eV     1   --> A_1  G_1 D_1   
     e(  7 -  7) =     19.87202  eV     1   --> A_1  G_1 D_1   
     e(  8 -  9) =     25.65679  eV     2   --> E    G_5 D_5   

 **************************************************************************

 **************************************************************************

                    xk=(   0.00000,   0.00000,   1.00000  )

     point group D_4h(4/mmm)
     there are 10 classes
     the character table:

       E     2C4   C2    2C2'  2C2'' i     2S4   s_h   2s_v  2s_d 
A_1g   1.00  1.00  1.00  1.00  1.00  1.00  1.00  1.00  1.00  1.00
A_2g   1.00  1.00  1.00 -1.00 -1.00  1.00  1.00  1.00 -1.00 -1.00
B_1g   1.00 -1.00  1.00  1.00 -1.00  1.00 -1.00  1.00  1.00 -1.00
B_2g   1.00 -1.00  1.00 -1.00  1.00  1.00 -1.00  1.00 -1.00  1.00
E_g    2.00  0.00 -2.00  0.00  0.00  2.00  0.00 -2.00  0.00  0.00
A_1u   1.00  1.00  1.00  1.00  1.00 -1.00 -1.00 -1.00 -1.00 -1.00
A_2u   1.00  1.00  1.00 -1.00 -1.00 -1.00 -1.00 -1.00  1.00  1.00
B_1u   1.00 -1.00  1.00  1.00 -1.00 -1.00  1.00 -1.00 -1.00  1.00
B_2u   1.00 -1.00  1.00 -1.00  1.00 -1.00  1.00 -1.00  1.00 -1.00
E_u    2.00  0.00 -2.00  0.00  0.00 -2.00  0.00  2.00  0.00  0.00

     the symmetry operations in each class and the name of the first element:

     E        1
                                                                 
     2C4      7    8
                                                                 
     C2       2
                                                                 
     2C2'     3    4
                                                                 
     2C2''    5    6
                                                                 
     i        9
                                                                 
     2S4     15   16
                                                                 
     s_h     10
                                                                 
     2s_v    11   12
                                                                 
     2s_d    13   14
                                                                 

     Band symmetry, D_4h(4/mmm) point group:

     e(  1 -  1) =      7.67821  eV     1   --> A_1g X_1  M_1  
     e(  2 -  2) =      8.13363  eV     1   --> B_2g X_3  M_3  
     e(  3 -  3) =     10.89008  eV     1   --> B_1g X_2  M_2  
     e(  4 -  5) =     11.05044  eV     2   --> E_g  X_5  M_5  
     e(  6 -  6) =     14.03618  eV     1   --> A_2u X_4' M_4' 
     e(  7 -  7) =     19.61105  eV     1   --> A_1g X_1  M_1  
     e(  8 -  9) =     25.61240  eV     2   --> E_u  X_5' M_5' 

 **************************************************************************

 **************************************************************************

                    xk=(   0.05000,   0.02500,   0.95000  )

     point group C_1 (1)    
     there are  1 classes
     the character table:

       E    
A      1.00

     the symmetry operations in each class and the name of the first element:

     E        1
                                                                 

     Band symmetry, C_1 (1)     point group:

     e(  1 -  1) =      7.69666  eV     1   --> A              
     e(  2 -  2) =      8.15270  eV     1   --> A              
     e(  3 -  3) =     10.87132  eV     1   --> A              
     e(  4 -  4) =     10.97075  eV     1   --> A              
     e(  5 -  5) =     11.03580  eV     1   --> A              
     e(  6 -  6) =     13.93757  eV     1   --> A              
     e(  7 -  7) =     19.88810  eV     1   --> A              
     e(  8 -  8) =     25.22517  eV     1   --> A              
     e(  9 -  9) =     25.65552  eV     1   --> A              

 **************************************************************************

 **************************************************************************

                    xk=(   0.10000,   0.05000,   0.90000  )

     Band symmetry, C_1 (1)     point group:

     e(  1 -  1) =      7.74862  eV     1   --> A              
     e(  2 -  2) =      8.20717  eV     1   --> A              
     e(  3 -  3) =     10.72489  eV     1   --> A              
     e(  4 -  4) =     10.82606  eV     1   --> A              
     e(  5 -  5) =     11.00329  eV     1   --> A              
     e(  6 -  6) =     13.70411  eV     1   --> A              
     e(  7 -  7) =     20.64607  eV     1   --> A              
     e(  8 -  8) =     24.34433  eV     1   --> A              
     e(  9 -  9) =     25.78050  eV     1   --> A              

 **************************************************************************

 **************************************************************************

                    xk=(   0.15000,   0.07500,   0.85000  )

     Band symmetry, C_1 (1)     point group:

     e(  1 -  1) =      7.82985  eV     1   --> A              
     e(  2 -  2) =      8.29415  eV     1   --> A              
     e(  3 -  3) =     10.38489  eV     1   --> A              
     e(  4 -  4) =     10.71317  eV     1   --> A              
     e(  5 -  5) =     10.97072  eV     1   --> A              
     e(  6 -  6) =     13.43641  eV     1   --> A              
     e(  7 -  7) =     21.74747  eV     1   --> A              
     e(  8 -  8) =     23.31856  eV     1   --> A              
     e(  9 -  9) =     25.97636  eV     1   --> A              

 **************************************************************************

 **************************************************************************

                    xk=(   0.20000,   0.10000,   0.80000  )

     Band symmetry, C_1 (1)     point group:

     e(  1 -  1) =      7.92735  eV     1   --> A              
     e(  2 -  2) =      8.40886  eV     1   --> A              
     e(  3 -  3) =      9.99796  eV     1   --> A              
     e(  4 -  4) =     10.56137  eV     1   --> A              
     e(  5 -  5) =     10.93982  eV     1   --> A              
     e(  6 -  6) =     13.18364  eV     1   --> A              
     e(  7 -  7) =     22.27821  eV     1   --> A              
     e(  8 -  8) =     23.11357  eV     1   --> A              
     e(  9 -  9) =     26.23080  eV     1   --> A              

 **************************************************************************

 **************************************************************************

                    xk=(   0.25000,   0.12500,   0.75000  )

     Band symmetry, C_1 (1)     point group:

     e(  1 -  1) =      8.01132  eV     1   --> A              
     e(  2 -  2) =      8.54921  eV     1   --> A              
     e(  3 -  3) =      9.64773  eV     1   --> A              
     e(  4 -  4) =     10.38566  eV     1   --> A              
     e(  5 -  5) =     10.90565  eV     1   --> A              
     e(  6 -  6) =     12.95155  eV     1   --> A              
     e(  7 -  7) =     21.33651  eV     1   --> A              
     e(  8 -  8) =     24.62965  eV     1   --> A              
     e(  9 -  9) =     26.53728  eV     1   --> A              

 **************************************************************************

 **************************************************************************

                    xk=(   0.30000,   0.15000,   0.70000  )

     Band symmetry, C_1 (1)     point group:

     e(  1 -  1) =      8.02817  eV     1   --> A              
     e(  2 -  2) =      8.72080  eV     1   --> A              
     e(  3 -  3) =      9.41449  eV     1   --> A              
     e(  4 -  4) =     10.20240  eV     1   --> A              
     e(  5 -  5) =     10.86428  eV     1   --> A              
     e(  6 -  6) =     12.73329  eV     1   --> A              
     e(  7 -  7) =     20.48618  eV     1   --> A              
     e(  8 -  8) =     26.26653  eV     1   --> A              
     e(  9 -  9) =     26.92096  eV     1   --> A              

 **************************************************************************

 **************************************************************************

                    xk=(   0.35000,   0.17500,   0.65000  )

     Band symmetry, C_1 (1)     point group:

     e(  1 -  1) =      7.94574  eV     1   --> A              
     e(  2 -  2) =      8.93065  eV     1   --> A              
     e(  3 -  3) =      9.33740  eV     1   --> A              
     e(  4 -  4) =     10.02665  eV     1   --> A              
     e(  5 -  5) =     10.81425  eV     1   --> A              
     e(  6 -  6) =     12.52585  eV     1   --> A              
     e(  7 -  7) =     19.74707  eV     1   --> A              
     e(  8 -  8) =     27.22029  eV     1   --> A              
     e(  9 -  9) =     28.15707  eV     1   --> A              

 **************************************************************************

 **************************************************************************

                    xk=(   0.40000,   0.20000,   0.60000  )

     Band symmetry, C_1 (1)     point group:

     e(  1 -  1) =      7.81119  eV     1   --> A              
     e(  2 -  2) =      9.15410  eV     1   --> A              
     e(  3 -  3) =      9.38719  eV     1   --> A              
     e(  4 -  4) =      9.87161  eV     1   --> A              
     e(  5 -  5) =     10.75716  eV     1   --> A              
     e(  6 -  6) =     12.33592  eV     1   --> A              
     e(  7 -  7) =     19.12346  eV     1   --> A              
     e(  8 -  8) =     27.69684  eV     1   --> A              
     e(  9 -  9) =     30.02207  eV     1   --> A              

 **************************************************************************

 **************************************************************************

                    xk=(   0.45000,   0.22500,   0.55000  )

     Band symmetry, C_1 (1)     point group:

     e(  1 -  1) =      7.69382  eV     1   --> A              
     e(  2 -  2) =      9.30711  eV     1   --> A              
     e(  3 -  3) =      9.54675  eV     1   --> A              
     e(  4 -  4) =      9.75094  eV     1   --> A              
     e(  5 -  5) =     10.70702  eV     1   --> A              
     e(  6 -  6) =     12.18246  eV     1   --> A              
     e(  7 -  7) =     18.61284  eV     1   --> A              
     e(  8 -  8) =     28.22568  eV     1   --> A              
     e(  9 -  9) =     31.94867  eV     1   --> A              

 **************************************************************************

 **************************************************************************

                    xk=(   0.50000,   0.25000,   0.50000  )

     point group C_s (m)    
     there are  2 classes
     the character table:

       E     s    
A'     1.00  1.00
A''    1.00 -1.00

     the symmetry operations in each class and the name of the first element:

     E        1
                                                                 
     s        2
                                                                 

     Band symmetry, C_s (m)     point group:

     e(  1 -  1) =      7.63215  eV     1   --> A'             
     e(  2 -  2) =      9.36454  eV     1   --> A'             
     e(  3 -  3) =      9.67554  eV     1   --> A''            
     e(  4 -  4) =      9.72627  eV     1   --> A'             
     e(  5 -  5) =     10.70352  eV     1   --> A''            
     e(  6 -  6) =     12.09913  eV     1   --> A'             
     e(  7 -  7) =     18.20831  eV     1   --> A'             
     e(  8 -  8) =     28.82826  eV     1   --> A'             
     e(  9 -  9) =     33.54087  eV     1   --> A''            

 **************************************************************************

 **************************************************************************

                    xk=(   0.55000,   0.27500,   0.45000  )

     point group C_1 (1)    
     there are  1 classes
     the character table:

       E    
A      1.00

     the symmetry operations in each class and the name of the first element:

     E        1
                                                                 

     Band symmetry, C_1 (1)     point group:

     e(  1 -  1) =      7.63958  eV     1   --> A              
     e(  2 -  2) =      9.35262  eV     1   --> A              
     e(  3 -  3) =      9.66323  eV     1   --> A              
     e(  4 -  4) =      9.78704  eV     1   --> A              
     e(  5 -  5) =     10.78287  eV     1   --> A              
     e(  6 -  6) =     12.14111  eV     1   --> A              
     e(  7 -  7) =     17.90128  eV     1   --> A              
     e(  8 -  8) =     29.49900  eV     1   --> A              
     e(  9 -  9) =     32.16216  eV     1   --> A              

 **************************************************************************

 **************************************************************************

                    xk=(   0.60000,   0.30000,   0.40000  )

     Band symmetry, C_1 (1)     point group:

     e(  1 -  1) =      7.71458  eV     1   --> A              
     e(  2 -  2) =      9.28518  eV     1   --> A              
     e(  3 -  3) =      9.68496  eV     1   --> A              
     e(  4 -  4) =      9.74886  eV     1   --> A              
     e(  5 -  5) =     10.88201  eV     1   --> A              
     e(  6 -  6) =     12.37543  eV     1   --> A              
     e(  7 -  7) =     17.68425  eV     1   --> A              
     e(  8 -  8) =     30.06668  eV     1   --> A              
     e(  9 -  9) =     30.62851  eV     1   --> A              

 **************************************************************************

 **************************************************************************

                    xk=(   0.65000,   0.32500,   0.35000  )

     Band symmetry, C_1 (1)     point group:

     e(  1 -  1) =      7.84627  eV     1   --> A              
     e(  2 -  2) =      9.17092  eV     1   --> A              
     e(  3 -  3) =      9.63355  eV     1   --> A              
     e(  4 -  4) =      9.78201  eV     1   --> A              
     e(  5 -  5) =     10.92534  eV     1   --> A              
     e(  6 -  6) =     12.81985  eV     1   --> A              
     e(  7 -  7) =     17.55324  eV     1   --> A              
     e(  8 -  8) =     28.78780  eV     1   --> A              
     e(  9 -  9) =     30.73646  eV     1   --> A              

 **************************************************************************

 **************************************************************************

                    xk=(   0.70000,   0.35000,   0.30000  )

     Band symmetry, C_1 (1)     point group:

     e(  1 -  1) =      8.01750  eV     1   --> A              
     e(  2 -  2) =      9.02435  eV     1   --> A              
     e(  3 -  3) =      9.54374  eV     1   --> A              
     e(  4 -  4) =      9.88829  eV     1   --> A              
     e(  5 -  5) =     10.91890  eV     1   --> A              
     e(  6 -  6) =     13.43252  eV     1   --> A              
     e(  7 -  7) =     17.50919  eV     1   --> A              
     e(  8 -  8) =     27.25855  eV     1   --> A              
     e(  9 -  9) =     29.84312  eV     1   --> A              

 **************************************************************************

 **************************************************************************

                    xk=(   0.75000,   0.37500,   0.25000  )

     Band symmetry, C_1 (1)     point group:

     e(  1 -  1) =      8.20743  eV     1   --> A              
     e(  2 -  2) =      8.87114  eV     1   --> A              
     e(  3 -  3) =      9.45151  eV     1   --> A              
     e(  4 -  4) =     10.02679  eV     1   --> A              
     e(  5 -  5) =     10.89315  eV     1   --> A              
     e(  6 -  6) =     14.17311  eV     1   --> A              
     e(  7 -  7) =     17.55802  eV     1   --> A              
     e(  8 -  8) =     25.81731  eV     1   --> A              
     e(  9 -  9) =     28.13845  eV     1   --> A              

 **************************************************************************

 **************************************************************************

                    xk=(   0.80000,   0.40000,   0.20000  )

     Band symmetry, C_1 (1)     point group:

     e(  1 -  1) =      8.39101  eV     1   --> A              
     e(  2 -  2) =      8.73933  eV     1   --> A              
     e(  3 -  3) =      9.35845  eV     1   --> A              
     e(  4 -  4) =     10.16812  eV     1   --> A              
     e(  5 -  5) =     10.87695  eV     1   --> A              
     e(  6 -  6) =     15.02031  eV     1   --> A              
     e(  7 -  7) =     17.70857  eV     1   --> A              
     e(  8 -  8) =     24.48247  eV     1   --> A              
     e(  9 -  9) =     26.36205  eV     1   --> A              

 **************************************************************************

 **************************************************************************

                    xk=(   0.85000,   0.42500,   0.15000  )

     Band symmetry, C_1 (1)     point group:

     e(  1 -  1) =      8.50476  eV     1   --> A              
     e(  2 -  2) =      8.69055  eV     1   --> A              
     e(  3 -  3) =      9.26782  eV     1   --> A              
     e(  4 -  4) =     10.26911  eV     1   --> A              
     e(  5 -  5) =     10.89827  eV     1   --> A              
     e(  6 -  6) =     15.96165  eV     1   --> A              
     e(  7 -  7) =     17.96659  eV     1   --> A              
     e(  8 -  8) =     23.26823  eV     1   --> A              
     e(  9 -  9) =     24.66000  eV     1   --> A              

 **************************************************************************

 **************************************************************************

                    xk=(   0.90000,   0.45000,   0.10000  )

     Band symmetry, C_1 (1)     point group:

     e(  1 -  1) =      8.47428  eV     1   --> A              
     e(  2 -  2) =      8.79499  eV     1   --> A              
     e(  3 -  3) =      9.18280  eV     1   --> A              
     e(  4 -  4) =     10.30704  eV     1   --> A              
     e(  5 -  5) =     10.96046  eV     1   --> A              
     e(  6 -  6) =     16.97787  eV     1   --> A              
     e(  7 -  7) =     18.31959  eV     1   --> A              
     e(  8 -  8) =     22.19746  eV     1   --> A              
     e(  9 -  9) =     23.10039  eV     1   --> A              

 **************************************************************************

 **************************************************************************

                    xk=(   0.95000,   0.47500,   0.05000  )

     Band symmetry, C_1 (1)     point group:

     e(  1 -  1) =      8.43119  eV     1   --> A              
     e(  2 -  2) =      8.91699  eV     1   --> A              
     e(  3 -  3) =      9.10225  eV     1   --> A              
     e(  4 -  4) =     10.30640  eV     1   --> A              
     e(  5 -  5) =     11.02482  eV     1   --> A              
     e(  6 -  6) =     18.00089  eV     1   --> A              
     e(  7 -  7) =     18.68657  eV     1   --> A              
     e(  8 -  8) =     21.31184  eV     1   --> A              
     e(  9 -  9) =     21.82587  eV     1   --> A              

 **************************************************************************

 **************************************************************************

                    xk=(   1.00000,   0.50000,   0.00000  )

     point group D_2d (-42m)
     there are  5 classes
     the character table:

       E     2S4   C2    2C2'  2s_d 
A_1    1.00  1.00  1.00  1.00  1.00
A_2    1.00  1.00  1.00 -1.00 -1.00
B_1    1.00 -1.00  1.00  1.00 -1.00
B_2    1.00 -1.00  1.00 -1.00  1.00
E      2.00  0.00 -2.00  0.00  0.00

     the symmetry operations in each class and the name of the first element:

     E        1
                                                                 
     2S4      7    8
                                                                 
     C2       2
                                                                 
     2C2'     3    4
                                                                 
     2s_d     5    6
                                                                 

     Band symmetry, D_2d (-42m) point group:

     e(  1 -  1) =      8.41503  eV     1   --> B_2  X_3  W_2  
     e(  2 -  3) =      9.01764  eV     2   --> E    X_5  W_3  
     e(  4 -  4) =     10.30153  eV     1   --> A_1  X_1  W_1  
     e(  5 -  5) =     11.05071  eV     1   --> B_1  X_2  W_1' 
     e(  6 -  7) =     18.72364  eV     2   --> E    X_5  W_3  
     e(  8 -  8) =     20.82795  eV     1   --> B_2  X_3  W_2  
     e(  9 -  9) =     21.29101  eV     1   --> A_1  X_1  W_1  

 **************************************************************************

 **************************************************************************

                    xk=(   0.98750,   0.51250,   0.00000  )

     point group C_s (m)    
     there are  2 classes
     the character table:

       E     s    
A'     1.00  1.00
A''    1.00 -1.00

     the symmetry operations in each class and the name of the first element:

     E        1
                                                                 
     s        2
                                                                 

     Band symmetry, C_s (m)     point group:

     e(  1 -  1) =      8.41440  eV     1   --> A'             
     e(  2 -  2) =      8.97230  eV     1   --> A'             
     e(  3 -  3) =      9.06371  eV     1   --> A''            
     e(  4 -  4) =     10.30294  eV     1   --> A'             
     e(  5 -  5) =     11.05004  eV     1   --> A''            
     e(  6 -  6) =     18.55180  eV     1   --> A''            
     e(  7 -  7) =     18.86677  eV     1   --> A'             
     e(  8 -  8) =     20.83002  eV     1   --> A'             
     e(  9 -  9) =     21.33017  eV     1   --> A'             

 **************************************************************************

 **************************************************************************

                    xk=(   0.97500,   0.52500,   0.00000  )

     Band symmetry, C_s (m)     point group:

     e(  1 -  1) =      8.41193  eV     1   --> A'             
     e(  2 -  2) =      8.92695  eV     1   --> A'             
     e(  3 -  3) =      9.11082  eV     1   --> A''            
     e(  4 -  4) =     10.30677  eV     1   --> A'             
     e(  5 -  5) =     11.04747  eV     1   --> A''            
     e(  6 -  6) =     18.38705  eV     1   --> A''            
     e(  7 -  7) =     18.94631  eV     1   --> A'             
     e(  8 -  8) =     20.81833  eV     1   --> A'             
     e(  9 -  9) =     21.46438  eV     1   --> A'             

 **************************************************************************

 **************************************************************************

                    xk=(   0.96250,   0.53750,   0.00000  )

     Band symmetry, C_s (m)     point group:

     e(  1 -  1) =      8.40796  eV     1   --> A'             
     e(  2 -  2) =      8.88205  eV     1   --> A'             
     e(  3 -  3) =      9.15890  eV     1   --> A''            
     e(  4 -  4) =     10.31287  eV     1   --> A'             
     e(  5 -  5) =     11.04317  eV     1   --> A''            
     e(  6 -  6) =     18.22959  eV     1   --> A''            
     e(  7 -  7) =     18.97179  eV     1   --> A'             
     e(  8 -  8) =     20.78699  eV     1   --> A'             
     e(  9 -  9) =     21.68963  eV     1   --> A'             

 **************************************************************************

 **************************************************************************

                    xk=(   0.95000,   0.55000,   0.00000  )

     Band symmetry, C_s (m)     point group:

     e(  1 -  1) =      8.40283  eV     1   --> A'             
     e(  2 -  2) =      8.83817  eV     1   --> A'             
     e(  3 -  3) =      9.20782  eV     1   --> A''            
     e(  4 -  4) =     10.32103  eV     1   --> A'             
     e(  5 -  5) =     11.03735  eV     1   --> A''            
     e(  6 -  6) =     18.07960  eV     1   --> A''            
     e(  7 -  7) =     18.95801  eV     1   --> A'             
     e(  8 -  8) =     20.74493  eV     1   --> A'             
     e(  9 -  9) =     21.98175  eV     1   --> A'             

 **************************************************************************

 **************************************************************************

                    xk=(   0.93750,   0.56250,   0.00000  )

     Band symmetry, C_s (m)     point group:

     e(  1 -  1) =      8.39613  eV     1   --> A'             
     e(  2 -  2) =      8.79548  eV     1   --> A'             
     e(  3 -  3) =      9.25717  eV     1   --> A''            
     e(  4 -  4) =     10.33084  eV     1   --> A'             
     e(  5 -  5) =     11.02968  eV     1   --> A''            
     e(  6 -  6) =     17.93729  eV     1   --> A''            
     e(  7 -  7) =     18.91871  eV     1   --> A'             
     e(  8 -  8) =     20.69932  eV     1   --> A'             
     e(  9 -  9) =     22.31932  eV     1   --> A'             

 **************************************************************************

 **************************************************************************

                    xk=(   0.92500,   0.57500,   0.00000  )

     Band symmetry, C_s (m)     point group:

     e(  1 -  1) =      8.38820  eV     1   --> A'             
     e(  2 -  2) =      8.75455  eV     1   --> A'             
     e(  3 -  3) =      9.30675  eV     1   --> A''            
     e(  4 -  4) =     10.34203  eV     1   --> A'             
     e(  5 -  5) =     11.02040  eV     1   --> A''            
     e(  6 -  6) =     17.80287  eV     1   --> A''            
     e(  7 -  7) =     18.86418  eV     1   --> A'             
     e(  8 -  8) =     20.65381  eV     1   --> A'             
     e(  9 -  9) =     22.68789  eV     1   --> A'             

 **************************************************************************

 **************************************************************************

                    xk=(   0.91250,   0.58750,   0.00000  )

     Band symmetry, C_s (m)     point group:

     e(  1 -  1) =      8.37913  eV     1   --> A'             
     e(  2 -  2) =      8.71580  eV     1   --> A'             
     e(  3 -  3) =      9.35626  eV     1   --> A''            
     e(  4 -  4) =     10.35429  eV     1   --> A'             
     e(  5 -  5) =     11.00960  eV     1   --> A''            
     e(  6 -  6) =     17.67654  eV     1   --> A''            
     e(  7 -  7) =     18.80142  eV     1   --> A'             
     e(  8 -  8) =     20.61019  eV     1   --> A'             
     e(  9 -  9) =     23.07807  eV     1   --> A'             

 **************************************************************************

 **************************************************************************

                    xk=(   0.90000,   0.60000,   0.00000  )

     Band symmetry, C_s (m)     point group:

     e(  1 -  1) =      8.36893  eV     1   --> A'             
     e(  2 -  2) =      8.67950  eV     1   --> A'             
     e(  3 -  3) =      9.40538  eV     1   --> A''            
     e(  4 -  4) =     10.36727  eV     1   --> A'             
     e(  5 -  5) =     10.99741  eV     1   --> A''            
     e(  6 -  6) =     17.55851  eV     1   --> A''            
     e(  7 -  7) =     18.73512  eV     1   --> A'             
     e(  8 -  8) =     20.56929  eV     1   --> A'             
     e(  9 -  9) =     23.48356  eV     1   --> A'             

 **************************************************************************

 **************************************************************************

                    xk=(   0.88750,   0.61250,   0.00000  )

     Band symmetry, C_s (m)     point group:

     e(  1 -  1) =      8.35771  eV     1   --> A'             
     e(  2 -  2) =      8.64614  eV     1   --> A'             
     e(  3 -  3) =      9.45349  eV     1   --> A''            
     e(  4 -  4) =     10.38042  eV     1   --> A'             
     e(  5 -  5) =     10.98382  eV     1   --> A''            
     e(  6 -  6) =     17.44899  eV     1   --> A''            
     e(  7 -  7) =     18.66844  eV     1   --> A'             
     e(  8 -  8) =     20.53153  eV     1   --> A'             
     e(  9 -  9) =     23.89990  eV     1   --> A'             

 **************************************************************************

 **************************************************************************

                    xk=(   0.87500,   0.62500,   0.00000  )

     Band symmetry, C_s (m)     point group:

     e(  1 -  1) =      8.34581  eV     1   --> A'             
     e(  2 -  2) =      8.61610  eV     1   --> A'             
     e(  3 -  3) =      9.50064  eV     1   --> A''            
     e(  4 -  4) =     10.39388  eV     1   --> A'             
     e(  5 -  5) =     10.96937  eV     1   --> A''            
     e(  6 -  6) =     17.34818  eV     1   --> A''            
     e(  7 -  7) =     18.60354  eV     1   --> A'             
     e(  8 -  8) =     20.49712  eV     1   --> A'             
     e(  9 -  9) =     24.32358  eV     1   --> A'             

 **************************************************************************

 **************************************************************************

                    xk=(   0.86250,   0.63750,   0.00000  )

     Band symmetry, C_s (m)     point group:

     e(  1 -  1) =      8.33332  eV     1   --> A'             
     e(  2 -  2) =      8.58944  eV     1   --> A'             
     e(  3 -  3) =      9.54613  eV     1   --> A''            
     e(  4 -  4) =     10.40710  eV     1   --> A'             
     e(  5 -  5) =     10.95417  eV     1   --> A''            
     e(  6 -  6) =     17.25628  eV     1   --> A''            
     e(  7 -  7) =     18.54195  eV     1   --> A'             
     e(  8 -  8) =     20.46612  eV     1   --> A'             
     e(  9 -  9) =     24.75145  eV     1   --> A'             

 **************************************************************************

 **************************************************************************

                    xk=(   0.85000,   0.65000,   0.00000  )

     Band symmetry, C_s (m)     point group:

     e(  1 -  1) =      8.32054  eV     1   --> A'             
     e(  2 -  2) =      8.56623  eV     1   --> A'             
     e(  3 -  3) =      9.58943  eV     1   --> A''            
     e(  4 -  4) =     10.41979  eV     1   --> A'             
     e(  5 -  5) =     10.93856  eV     1   --> A''            
     e(  6 -  6) =     17.17349  eV     1   --> A''            
     e(  7 -  7) =     18.48479  eV     1   --> A'             
     e(  8 -  8) =     20.43853  eV     1   --> A'             
     e(  9 -  9) =     25.18026  eV     1   --> A'             

 **************************************************************************

 **************************************************************************

                    xk=(   0.83750,   0.66250,   0.00000  )

     Band symmetry, C_s (m)     point group:

     e(  1 -  1) =      8.30784  eV     1   --> A'             
     e(  2 -  2) =      8.54641  eV     1   --> A'             
     e(  3 -  3) =      9.62997  eV     1   --> A''            
     e(  4 -  4) =     10.43168  eV     1   --> A'             
     e(  5 -  5) =     10.92292  eV     1   --> A''            
     e(  6 -  6) =     17.09997  eV     1   --> A''            
     e(  7 -  7) =     18.43289  eV     1   --> A'             
     e(  8 -  8) =     20.41434  eV     1   --> A'             
     e(  9 -  9) =     25.60618  eV     1   --> A'             

 **************************************************************************

 **************************************************************************

                    xk=(   0.82500,   0.67500,   0.00000  )

     Band symmetry, C_s (m)     point group:

     e(  1 -  1) =      8.29565  eV     1   --> A'             
     e(  2 -  2) =      8.52984  eV     1   --> A'             
     e(  3 -  3) =      9.66712  eV     1   --> A''            
     e(  4 -  4) =     10.44253  eV     1   --> A'             
     e(  5 -  5) =     10.90771  eV     1   --> A''            
     e(  6 -  6) =     17.03589  eV     1   --> A''            
     e(  7 -  7) =     18.38687  eV     1   --> A'             
     e(  8 -  8) =     20.39350  eV     1   --> A'             
     e(  9 -  9) =     26.02425  eV     1   --> A'             

 **************************************************************************

 **************************************************************************

                    xk=(   0.81250,   0.68750,   0.00000  )

     Band symmetry, C_s (m)     point group:

     e(  1 -  1) =      8.28451  eV     1   --> A'             
     e(  2 -  2) =      8.51645  eV     1   --> A'             
     e(  3 -  3) =      9.70022  eV     1   --> A''            
     e(  4 -  4) =     10.45219  eV     1   --> A'             
     e(  5 -  5) =     10.89365  eV     1   --> A''            
     e(  6 -  6) =     16.98141  eV     1   --> A''            
     e(  7 -  7) =     18.34723  eV     1   --> A'             
     e(  8 -  8) =     20.37598  eV     1   --> A'             
     e(  9 -  9) =     26.42750  eV     1   --> A'             

 **************************************************************************

 **************************************************************************

                    xk=(   0.80000,   0.70000,   0.00000  )

     Band symmetry, C_s (m)     point group:

     e(  1 -  1) =      8.27441  eV     1   --> A'             
     e(  2 -  2) =      8.50565  eV     1   --> A'             
     e(  3 -  3) =      9.72856  eV     1   --> A''            
     e(  4 -  4) =     10.46028  eV     1   --> A'             
     e(  5 -  5) =     10.88089  eV     1   --> A''            
     e(  6 -  6) =     16.93665  eV     1   --> A''            
     e(  7 -  7) =     18.31433  eV     1   --> A'             
     e(  8 -  8) =     20.36170  eV     1   --> A'             
     e(  9 -  9) =     26.80562  eV     1   --> A'             

 **************************************************************************

 **************************************************************************

                    xk=(   0.78750,   0.71250,   0.00000  )

     Band symmetry, C_s (m)     point group:

     e(  1 -  1) =      8.26633  eV     1   --> A'             
     e(  2 -  2) =      8.49758  eV     1   --> A'             
     e(  3 -  3) =      9.75148  eV     1   --> A''            
     e(  4 -  4) =     10.46675  eV     1   --> A'             
     e(  5 -  5) =     10.87022  eV     1   --> A''            
     e(  6 -  6) =     16.90172  eV     1   --> A''            
     e(  7 -  7) =     18.28847  eV     1   --> A'             
     e(  8 -  8) =     20.35064  eV     1   --> A'             
     e(  9 -  9) =     27.14335  eV     1   --> A'             

 **************************************************************************

 **************************************************************************

                    xk=(   0.77500,   0.72500,   0.00000  )

     Band symmetry, C_s (m)     point group:

     e(  1 -  1) =      8.26078  eV     1   --> A'             
     e(  2 -  2) =      8.49195  eV     1   --> A'             
     e(  3 -  3) =      9.76825  eV     1   --> A''            
     e(  4 -  4) =     10.47136  eV     1   --> A'             
     e(  5 -  5) =     10.86222  eV     1   --> A''            
     e(  6 -  6) =     16.87670  eV     1   --> A''            
     e(  7 -  7) =     18.26985  eV     1   --> A'             
     e(  8 -  8) =     20.34278  eV     1   --> A'             
     e(  9 -  9) =     27.41850  eV     1   --> A'             

 **************************************************************************

 **************************************************************************

                    xk=(   0.76250,   0.73750,   0.00000  )

     Band symmetry, C_s (m)     point group:

     e(  1 -  1) =      8.25704  eV     1   --> A'             
     e(  2 -  2) =      8.48862  eV     1   --> A'             
     e(  3 -  3) =      9.77860  eV     1   --> A''            
     e(  4 -  4) =     10.47411  eV     1   --> A'             
     e(  5 -  5) =     10.85719  eV     1   --> A''            
     e(  6 -  6) =     16.86167  eV     1   --> A''            
     e(  7 -  7) =     18.25862  eV     1   --> A'             
     e(  8 -  8) =     20.33806  eV     1   --> A'             
     e(  9 -  9) =     27.60251  eV     1   --> A'             

 **************************************************************************

 **************************************************************************

                    xk=(   0.75000,   0.75000,   0.00000  )

     point group C_2v (mm2) 
     there are  4 classes
     the character table:

       E     C2    s_v   s_v' 
A_1    1.00  1.00  1.00  1.00
A_2    1.00  1.00 -1.00 -1.00
B_1    1.00 -1.00  1.00 -1.00
B_2    1.00 -1.00 -1.00  1.00

     the symmetry operations in each class and the name of the first element:

     E        1
                                                                 
     C2       2
                                                                 
     s_v      3
                                                                 
     s_v'     4
                                                                 

     Band symmetry, C_2v (mm2)  point group:

     e(  1 -  1) =      8.25579  eV     1   --> A_1  D_1  S_1  
     e(  2 -  2) =      8.48752  eV     1   --> A_1  D_1  S_1  
     e(  3 -  3) =      9.78209  eV     1   --> B_2  D_4  S_4  
     e(  4 -  4) =     10.47507  eV     1   --> B_1  D_3  S_3  
     e(  5 -  5) =     10.85547  eV     1   --> A_2  D_2  S_2  
     e(  6 -  6) =     16.85665  eV     1   --> B_2  D_4  S_4  
     e(  7 -  7) =     18.25487  eV     1   --> A_1  D_1  S_1  
     e(  8 -  8) =     20.33649  eV     1   --> A_1  D_1  S_1  
     e(  9 -  9) =     27.66787  eV     1   --> B_1  D_3  S_3  

 **************************************************************************

     BANDS        :      0.55s CPU      1.19s WALL


   This run was terminated on:  15:59: 4  22Sep2023            

=------------------------------------------------------------------------------=
   JOB DONE.
=------------------------------------------------------------------------------=
