
     Program PWSCF v.7.1 starts on 22Sep2023 at 15:59: 0 

     This program is part of the open-source Quantum ESPRESSO suite
     for quantum simulation of materials; please cite
         "P. Giannozzi et al., J. Phys.:Condens. Matter 21 395502 (2009);
         "P. Giannozzi et al., J. Phys.:Condens. Matter 29 465901 (2017);
         "P. Giannozzi et al., J. Chem. Phys. 152 154105 (2020);
          URL http://www.quantum-espresso.org", 
     in publications or presentations arising from this work. More details at
     http://www.quantum-espresso.org/quote

     Parallel version (MPI & OpenMP), running on      10 processor cores
     Number of MPI processes:                10
     Threads/MPI process:                     1

     MPI processes distributed on     1 nodes
     11682 MiB available memory on the printing compute node when the environment starts

     Waiting for input...
     Reading input from standard input

     Current dimensions of program PWSCF are:
     Max number of different atomic species (ntypx) = 10
     Max number of k-points (npk) =  40000
     Max angular momentum in pseudopotentials (lmaxx) =  4
     Message from routine volume:
     axis vectors are left-handed

     Atomic positions and unit cell read from directory:
     ./work/pwscf.save/

     Message from routine volume:
     axis vectors are left-handed
     file Cu.pbe-dn-kjpaw_psl.1.0.0.UPF: wavefunction(s)  4S 3D renormalized
     Message from routine setup:
     using ibrav=0 with symmetry is DISCOURAGED, use correct ibrav instead

     R & G space division:  proc/nbgrp/npool/nimage =      10
     Subspace diagonalization in iterative solution of the eigenvalue problem:
     a serial algorithm will be used


     Parallelization info
     --------------------
     sticks:   dense  smooth     PW     G-vecs:    dense   smooth      PW
     Min          37      29      9                  490      328      59
     Max          39      30     10                  492      330      62
     Sum         379     295     91                 4909     3287     609

     Using Slab Decomposition



     bravais-lattice index     =            0
     lattice parameter (alat)  =       6.8432  a.u.
     unit-cell volume          =      80.1153 (a.u.)^3
     number of atoms/cell      =            1
     number of atomic types    =            1
     number of electrons       =        11.00
     number of Kohn-Sham states=            9
     kinetic-energy cutoff     =      45.0000  Ry
     charge density cutoff     =     236.0000  Ry
     Exchange-correlation= SLA  PW   PBX  PBC
                           (   1   4   3   4   0   0   0)

     celldm(1)=   6.843190  celldm(2)=   0.000000  celldm(3)=   0.000000
     celldm(4)=   0.000000  celldm(5)=   0.000000  celldm(6)=   0.000000

     crystal axes: (cart. coord. in units of alat)
               a(1) = (   0.500000   0.500000   0.000000 )  
               a(2) = (   0.500000   0.000000   0.500000 )  
               a(3) = (   0.000000   0.500000   0.500000 )  

     reciprocal axes: (cart. coord. in units 2 pi/alat)
               b(1) = (  1.000000  1.000000 -1.000000 )  
               b(2) = (  1.000000 -1.000000  1.000000 )  
               b(3) = ( -1.000000  1.000000  1.000000 )  


     PseudoPot. # 1 for Cu read from file:
     ./../../pseudo/psl100_PBE/Cu.pbe-dn-kjpaw_psl.1.0.0.UPF
     MD5 check sum: f59ba8c3b87e94ef18c0e23e9da06584
     Pseudo is Projector augmented-wave + core cor, Zval = 11.0
     Generated using 'atomic' code by A. Dal Corso  v.7.2
     Shape of augmentation charge: PSQ
     Using radial grid of 1199 points,  6 beta functions with: 
                l(1) =   0
                l(2) =   0
                l(3) =   1
                l(4) =   1
                l(5) =   2
                l(6) =   2
     Q(r) pseudized with 0 coefficients 


     atomic species   valence    mass     pseudopotential
        Cu            11.00    63.54600     Cu( 1.00)

     48 Sym. Ops., with inversion, found


                                    s                        frac. trans.

      isym =  1     identity                                     

 cryst.   s( 1) = (     1          0          0      )
                  (     0          1          0      )
                  (     0          0          1      )

 cart.    s( 1) = (  1.0000000  0.0000000  0.0000000 )
                  (  0.0000000  1.0000000  0.0000000 )
                  (  0.0000000  0.0000000  1.0000000 )


      isym =  2     180 deg rotation - cart. axis [0,0,1]        

 cryst.   s( 2) = (    -1          0          0      )
                  (    -1          0          1      )
                  (    -1          1          0      )

 cart.    s( 2) = ( -1.0000000  0.0000000  0.0000000 )
                  (  0.0000000 -1.0000000  0.0000000 )
                  (  0.0000000  0.0000000  1.0000000 )


      isym =  3     180 deg rotation - cart. axis [0,1,0]        

 cryst.   s( 3) = (     0         -1          1      )
                  (     0         -1          0      )
                  (     1         -1          0      )

 cart.    s( 3) = ( -1.0000000  0.0000000  0.0000000 )
                  (  0.0000000  1.0000000  0.0000000 )
                  (  0.0000000  0.0000000 -1.0000000 )


      isym =  4     180 deg rotation - cart. axis [1,0,0]        

 cryst.   s( 4) = (     0          1         -1      )
                  (     1          0         -1      )
                  (     0          0         -1      )

 cart.    s( 4) = (  1.0000000  0.0000000  0.0000000 )
                  (  0.0000000 -1.0000000  0.0000000 )
                  (  0.0000000  0.0000000 -1.0000000 )


      isym =  5     180 deg rotation - cart. axis [1,1,0]        

 cryst.   s( 5) = (     1          0          0      )
                  (     1         -1          0      )
                  (     1          0         -1      )

 cart.    s( 5) = (  0.0000000  1.0000000  0.0000000 )
                  (  1.0000000  0.0000000  0.0000000 )
                  (  0.0000000  0.0000000 -1.0000000 )


      isym =  6     180 deg rotation - cart. axis [1,-1,0]       

 cryst.   s( 6) = (    -1          0          0      )
                  (     0          0         -1      )
                  (     0         -1          0      )

 cart.    s( 6) = (  0.0000000 -1.0000000  0.0000000 )
                  ( -1.0000000  0.0000000  0.0000000 )
                  (  0.0000000  0.0000000 -1.0000000 )


      isym =  7      90 deg rotation - cart. axis [0,0,-1]       

 cryst.   s( 7) = (     0          1         -1      )
                  (    -1          1          0      )
                  (     0          1          0      )

 cart.    s( 7) = (  0.0000000  1.0000000  0.0000000 )
                  ( -1.0000000  0.0000000  0.0000000 )
                  (  0.0000000  0.0000000  1.0000000 )


      isym =  8      90 deg rotation - cart. axis [0,0,1]        

 cryst.   s( 8) = (     0         -1          1      )
                  (     0          0          1      )
                  (    -1          0          1      )

 cart.    s( 8) = (  0.0000000 -1.0000000  0.0000000 )
                  (  1.0000000  0.0000000  0.0000000 )
                  (  0.0000000  0.0000000  1.0000000 )


      isym =  9     180 deg rotation - cart. axis [1,0,1]        

 cryst.   s( 9) = (    -1          1          0      )
                  (     0          1          0      )
                  (     0          1         -1      )

 cart.    s( 9) = (  0.0000000  0.0000000  1.0000000 )
                  (  0.0000000 -1.0000000  0.0000000 )
                  (  1.0000000  0.0000000  0.0000000 )


      isym = 10     180 deg rotation - cart. axis [-1,0,1]       

 cryst.   s(10) = (     0          0         -1      )
                  (     0         -1          0      )
                  (    -1          0          0      )

 cart.    s(10) = (  0.0000000  0.0000000 -1.0000000 )
                  (  0.0000000 -1.0000000  0.0000000 )
                  ( -1.0000000  0.0000000  0.0000000 )


      isym = 11      90 deg rotation - cart. axis [0,1,0]        

 cryst.   s(11) = (     1         -1          0      )
                  (     1          0         -1      )
                  (     1          0          0      )

 cart.    s(11) = (  0.0000000  0.0000000  1.0000000 )
                  (  0.0000000  1.0000000  0.0000000 )
                  ( -1.0000000  0.0000000  0.0000000 )


      isym = 12      90 deg rotation - cart. axis [0,-1,0]       

 cryst.   s(12) = (     0          0          1      )
                  (    -1          0          1      )
                  (     0         -1          1      )

 cart.    s(12) = (  0.0000000  0.0000000 -1.0000000 )
                  (  0.0000000  1.0000000  0.0000000 )
                  (  1.0000000  0.0000000  0.0000000 )


      isym = 13     180 deg rotation - cart. axis [0,1,1]        

 cryst.   s(13) = (    -1          0          1      )
                  (     0         -1          1      )
                  (     0          0          1      )

 cart.    s(13) = ( -1.0000000  0.0000000  0.0000000 )
                  (  0.0000000  0.0000000  1.0000000 )
                  (  0.0000000  1.0000000  0.0000000 )


      isym = 14     180 deg rotation - cart. axis [0,1,-1]       

 cryst.   s(14) = (     0         -1          0      )
                  (    -1          0          0      )
                  (     0          0         -1      )

 cart.    s(14) = ( -1.0000000  0.0000000  0.0000000 )
                  (  0.0000000  0.0000000 -1.0000000 )
                  (  0.0000000 -1.0000000  0.0000000 )


      isym = 15      90 deg rotation - cart. axis [-1,0,0]       

 cryst.   s(15) = (     1          0         -1      )
                  (     1          0          0      )
                  (     1         -1          0      )

 cart.    s(15) = (  1.0000000  0.0000000  0.0000000 )
                  (  0.0000000  0.0000000  1.0000000 )
                  (  0.0000000 -1.0000000  0.0000000 )


      isym = 16      90 deg rotation - cart. axis [1,0,0]        

 cryst.   s(16) = (     0          1          0      )
                  (     0          1         -1      )
                  (    -1          1          0      )

 cart.    s(16) = (  1.0000000  0.0000000  0.0000000 )
                  (  0.0000000  0.0000000 -1.0000000 )
                  (  0.0000000  1.0000000  0.0000000 )


      isym = 17     120 deg rotation - cart. axis [-1,-1,-1]     

 cryst.   s(17) = (     0          1          0      )
                  (     0          0          1      )
                  (     1          0          0      )

 cart.    s(17) = (  0.0000000  1.0000000  0.0000000 )
                  (  0.0000000  0.0000000  1.0000000 )
                  (  1.0000000  0.0000000  0.0000000 )


      isym = 18     120 deg rotation - cart. axis [-1,1,1]       

 cryst.   s(18) = (     0         -1          0      )
                  (     1         -1          0      )
                  (     0         -1          1      )

 cart.    s(18) = (  0.0000000 -1.0000000  0.0000000 )
                  (  0.0000000  0.0000000  1.0000000 )
                  ( -1.0000000  0.0000000  0.0000000 )


      isym = 19     120 deg rotation - cart. axis [1,1,-1]       

 cryst.   s(19) = (     1          0         -1      )
                  (     0          0         -1      )
                  (     0          1         -1      )

 cart.    s(19) = (  0.0000000  1.0000000  0.0000000 )
                  (  0.0000000  0.0000000 -1.0000000 )
                  ( -1.0000000  0.0000000  0.0000000 )


      isym = 20     120 deg rotation - cart. axis [1,-1,1]       

 cryst.   s(20) = (    -1          0          1      )
                  (    -1          1          0      )
                  (    -1          0          0      )

 cart.    s(20) = (  0.0000000 -1.0000000  0.0000000 )
                  (  0.0000000  0.0000000 -1.0000000 )
                  (  1.0000000  0.0000000  0.0000000 )


      isym = 21     120 deg rotation - cart. axis [1,1,1]        

 cryst.   s(21) = (     0          0          1      )
                  (     1          0          0      )
                  (     0          1          0      )

 cart.    s(21) = (  0.0000000  0.0000000  1.0000000 )
                  (  1.0000000  0.0000000  0.0000000 )
                  (  0.0000000  1.0000000  0.0000000 )


      isym = 22     120 deg rotation - cart. axis [-1,1,-1]      

 cryst.   s(22) = (     0          0         -1      )
                  (     0          1         -1      )
                  (     1          0         -1      )

 cart.    s(22) = (  0.0000000  0.0000000  1.0000000 )
                  ( -1.0000000  0.0000000  0.0000000 )
                  (  0.0000000 -1.0000000  0.0000000 )


      isym = 23     120 deg rotation - cart. axis [1,-1,-1]      

 cryst.   s(23) = (    -1          1          0      )
                  (    -1          0          0      )
                  (    -1          0          1      )

 cart.    s(23) = (  0.0000000  0.0000000 -1.0000000 )
                  ( -1.0000000  0.0000000  0.0000000 )
                  (  0.0000000  1.0000000  0.0000000 )


      isym = 24     120 deg rotation - cart. axis [-1,-1,1]      

 cryst.   s(24) = (     1         -1          0      )
                  (     0         -1          1      )
                  (     0         -1          0      )

 cart.    s(24) = (  0.0000000  0.0000000 -1.0000000 )
                  (  1.0000000  0.0000000  0.0000000 )
                  (  0.0000000 -1.0000000  0.0000000 )


      isym = 25     inversion                                    

 cryst.   s(25) = (    -1          0          0      )
                  (     0         -1          0      )
                  (     0          0         -1      )

 cart.    s(25) = ( -1.0000000  0.0000000  0.0000000 )
                  (  0.0000000 -1.0000000  0.0000000 )
                  (  0.0000000  0.0000000 -1.0000000 )


      isym = 26     inv. 180 deg rotation - cart. axis [0,0,1]   

 cryst.   s(26) = (     1          0          0      )
                  (     1          0         -1      )
                  (     1         -1          0      )

 cart.    s(26) = (  1.0000000  0.0000000  0.0000000 )
                  (  0.0000000  1.0000000  0.0000000 )
                  (  0.0000000  0.0000000 -1.0000000 )


      isym = 27     inv. 180 deg rotation - cart. axis [0,1,0]   

 cryst.   s(27) = (     0          1         -1      )
                  (     0          1          0      )
                  (    -1          1          0      )

 cart.    s(27) = (  1.0000000  0.0000000  0.0000000 )
                  (  0.0000000 -1.0000000  0.0000000 )
                  (  0.0000000  0.0000000  1.0000000 )


      isym = 28     inv. 180 deg rotation - cart. axis [1,0,0]   

 cryst.   s(28) = (     0         -1          1      )
                  (    -1          0          1      )
                  (     0          0          1      )

 cart.    s(28) = ( -1.0000000  0.0000000  0.0000000 )
                  (  0.0000000  1.0000000  0.0000000 )
                  (  0.0000000  0.0000000  1.0000000 )


      isym = 29     inv. 180 deg rotation - cart. axis [1,1,0]   

 cryst.   s(29) = (    -1          0          0      )
                  (    -1          1          0      )
                  (    -1          0          1      )

 cart.    s(29) = (  0.0000000 -1.0000000  0.0000000 )
                  ( -1.0000000  0.0000000  0.0000000 )
                  (  0.0000000  0.0000000  1.0000000 )


      isym = 30     inv. 180 deg rotation - cart. axis [1,-1,0]  

 cryst.   s(30) = (     1          0          0      )
                  (     0          0          1      )
                  (     0          1          0      )

 cart.    s(30) = (  0.0000000  1.0000000  0.0000000 )
                  (  1.0000000  0.0000000  0.0000000 )
                  (  0.0000000  0.0000000  1.0000000 )


      isym = 31     inv.  90 deg rotation - cart. axis [0,0,-1]  

 cryst.   s(31) = (     0         -1          1      )
                  (     1         -1          0      )
                  (     0         -1          0      )

 cart.    s(31) = (  0.0000000 -1.0000000  0.0000000 )
                  (  1.0000000  0.0000000  0.0000000 )
                  (  0.0000000  0.0000000 -1.0000000 )


      isym = 32     inv.  90 deg rotation - cart. axis [0,0,1]   

 cryst.   s(32) = (     0          1         -1      )
                  (     0          0         -1      )
                  (     1          0         -1      )

 cart.    s(32) = (  0.0000000  1.0000000  0.0000000 )
                  ( -1.0000000  0.0000000  0.0000000 )
                  (  0.0000000  0.0000000 -1.0000000 )


      isym = 33     inv. 180 deg rotation - cart. axis [1,0,1]   

 cryst.   s(33) = (     1         -1          0      )
                  (     0         -1          0      )
                  (     0         -1          1      )

 cart.    s(33) = (  0.0000000  0.0000000 -1.0000000 )
                  (  0.0000000  1.0000000  0.0000000 )
                  ( -1.0000000  0.0000000  0.0000000 )


      isym = 34     inv. 180 deg rotation - cart. axis [-1,0,1]  

 cryst.   s(34) = (     0          0          1      )
                  (     0          1          0      )
                  (     1          0          0      )

 cart.    s(34) = (  0.0000000  0.0000000  1.0000000 )
                  (  0.0000000  1.0000000  0.0000000 )
                  (  1.0000000  0.0000000  0.0000000 )


      isym = 35     inv.  90 deg rotation - cart. axis [0,1,0]   

 cryst.   s(35) = (    -1          1          0      )
                  (    -1          0          1      )
                  (    -1          0          0      )

 cart.    s(35) = (  0.0000000  0.0000000 -1.0000000 )
                  (  0.0000000 -1.0000000  0.0000000 )
                  (  1.0000000  0.0000000  0.0000000 )


      isym = 36     inv.  90 deg rotation - cart. axis [0,-1,0]  

 cryst.   s(36) = (     0          0         -1      )
                  (     1          0         -1      )
                  (     0          1         -1      )

 cart.    s(36) = (  0.0000000  0.0000000  1.0000000 )
                  (  0.0000000 -1.0000000  0.0000000 )
                  ( -1.0000000  0.0000000  0.0000000 )


      isym = 37     inv. 180 deg rotation - cart. axis [0,1,1]   

 cryst.   s(37) = (     1          0         -1      )
                  (     0          1         -1      )
                  (     0          0         -1      )

 cart.    s(37) = (  1.0000000  0.0000000  0.0000000 )
                  (  0.0000000  0.0000000 -1.0000000 )
                  (  0.0000000 -1.0000000  0.0000000 )


      isym = 38     inv. 180 deg rotation - cart. axis [0,1,-1]  

 cryst.   s(38) = (     0          1          0      )
                  (     1          0          0      )
                  (     0          0          1      )

 cart.    s(38) = (  1.0000000  0.0000000  0.0000000 )
                  (  0.0000000  0.0000000  1.0000000 )
                  (  0.0000000  1.0000000  0.0000000 )


      isym = 39     inv.  90 deg rotation - cart. axis [-1,0,0]  

 cryst.   s(39) = (    -1          0          1      )
                  (    -1          0          0      )
                  (    -1          1          0      )

 cart.    s(39) = ( -1.0000000  0.0000000  0.0000000 )
                  (  0.0000000  0.0000000 -1.0000000 )
                  (  0.0000000  1.0000000  0.0000000 )


      isym = 40     inv.  90 deg rotation - cart. axis [1,0,0]   

 cryst.   s(40) = (     0         -1          0      )
                  (     0         -1          1      )
                  (     1         -1          0      )

 cart.    s(40) = ( -1.0000000  0.0000000  0.0000000 )
                  (  0.0000000  0.0000000  1.0000000 )
                  (  0.0000000 -1.0000000  0.0000000 )


      isym = 41     inv. 120 deg rotation - cart. axis [-1,-1,-1]

 cryst.   s(41) = (     0         -1          0      )
                  (     0          0         -1      )
                  (    -1          0          0      )

 cart.    s(41) = (  0.0000000 -1.0000000  0.0000000 )
                  (  0.0000000  0.0000000 -1.0000000 )
                  ( -1.0000000  0.0000000  0.0000000 )


      isym = 42     inv. 120 deg rotation - cart. axis [-1,1,1]  

 cryst.   s(42) = (     0          1          0      )
                  (    -1          1          0      )
                  (     0          1         -1      )

 cart.    s(42) = (  0.0000000  1.0000000  0.0000000 )
                  (  0.0000000  0.0000000 -1.0000000 )
                  (  1.0000000  0.0000000  0.0000000 )


      isym = 43     inv. 120 deg rotation - cart. axis [1,1,-1]  

 cryst.   s(43) = (    -1          0          1      )
                  (     0          0          1      )
                  (     0         -1          1      )

 cart.    s(43) = (  0.0000000 -1.0000000  0.0000000 )
                  (  0.0000000  0.0000000  1.0000000 )
                  (  1.0000000  0.0000000  0.0000000 )


      isym = 44     inv. 120 deg rotation - cart. axis [1,-1,1]  

 cryst.   s(44) = (     1          0         -1      )
                  (     1         -1          0      )
                  (     1          0          0      )

 cart.    s(44) = (  0.0000000  1.0000000  0.0000000 )
                  (  0.0000000  0.0000000  1.0000000 )
                  ( -1.0000000  0.0000000  0.0000000 )


      isym = 45     inv. 120 deg rotation - cart. axis [1,1,1]   

 cryst.   s(45) = (     0          0         -1      )
                  (    -1          0          0      )
                  (     0         -1          0      )

 cart.    s(45) = (  0.0000000  0.0000000 -1.0000000 )
                  ( -1.0000000  0.0000000  0.0000000 )
                  (  0.0000000 -1.0000000  0.0000000 )


      isym = 46     inv. 120 deg rotation - cart. axis [-1,1,-1] 

 cryst.   s(46) = (     0          0          1      )
                  (     0         -1          1      )
                  (    -1          0          1      )

 cart.    s(46) = (  0.0000000  0.0000000 -1.0000000 )
                  (  1.0000000  0.0000000  0.0000000 )
                  (  0.0000000  1.0000000  0.0000000 )


      isym = 47     inv. 120 deg rotation - cart. axis [1,-1,-1] 

 cryst.   s(47) = (     1         -1          0      )
                  (     1          0          0      )
                  (     1          0         -1      )

 cart.    s(47) = (  0.0000000  0.0000000  1.0000000 )
                  (  1.0000000  0.0000000  0.0000000 )
                  (  0.0000000 -1.0000000  0.0000000 )


      isym = 48     inv. 120 deg rotation - cart. axis [-1,-1,1] 

 cryst.   s(48) = (    -1          1          0      )
                  (     0          1         -1      )
                  (     0          1          0      )

 cart.    s(48) = (  0.0000000  0.0000000  1.0000000 )
                  ( -1.0000000  0.0000000  0.0000000 )
                  (  0.0000000  1.0000000  0.0000000 )


   Cartesian axes

     site n.     atom                  positions (alat units)
         1           Cu  tau(   1) = (   0.0000000   0.0000000   0.0000000  )

   Crystallographic axes

     site n.     atom                  positions (cryst. coord.)
         1           Cu  tau(   1) = (  0.0000000  0.0000000  0.0000000  )

     number of k points=   101  Methfessel-Paxton smearing, width (Ry)=  0.0100
                       cart. coord. in units 2pi/alat
        k(    1) = (   0.0000000   1.0000000   0.5000000), wk =   0.0198020
        k(    2) = (   0.0250000   0.9250000   0.5000000), wk =   0.0198020
        k(    3) = (   0.0500000   0.8500000   0.5000000), wk =   0.0198020
        k(    4) = (   0.0750000   0.7750000   0.5000000), wk =   0.0198020
        k(    5) = (   0.1000000   0.7000000   0.5000000), wk =   0.0198020
        k(    6) = (   0.1250000   0.6250000   0.5000000), wk =   0.0198020
        k(    7) = (   0.1500000   0.5500000   0.5000000), wk =   0.0198020
        k(    8) = (   0.1750000   0.4750000   0.5000000), wk =   0.0198020
        k(    9) = (   0.2000000   0.4000000   0.5000000), wk =   0.0198020
        k(   10) = (   0.2250000   0.3250000   0.5000000), wk =   0.0198020
        k(   11) = (   0.2500000   0.2500000   0.5000000), wk =   0.0198020
        k(   12) = (   0.2750000   0.1750000   0.5000000), wk =   0.0198020
        k(   13) = (   0.3000000   0.1000000   0.5000000), wk =   0.0198020
        k(   14) = (   0.3250000   0.0250000   0.5000000), wk =   0.0198020
        k(   15) = (   0.3500000  -0.0500000   0.5000000), wk =   0.0198020
        k(   16) = (   0.3750000  -0.1250000   0.5000000), wk =   0.0198020
        k(   17) = (   0.4000000  -0.2000000   0.5000000), wk =   0.0198020
        k(   18) = (   0.4250000  -0.2750000   0.5000000), wk =   0.0198020
        k(   19) = (   0.4500000  -0.3500000   0.5000000), wk =   0.0198020
        k(   20) = (   0.4750000  -0.4250000   0.5000000), wk =   0.0198020
        k(   21) = (   0.5000000  -0.5000000   0.5000000), wk =   0.0198020
        k(   22) = (   0.4750000  -0.4750000   0.4750000), wk =   0.0198020
        k(   23) = (   0.4500000  -0.4500000   0.4500000), wk =   0.0198020
        k(   24) = (   0.4250000  -0.4250000   0.4250000), wk =   0.0198020
        k(   25) = (   0.4000000  -0.4000000   0.4000000), wk =   0.0198020
        k(   26) = (   0.3750000  -0.3750000   0.3750000), wk =   0.0198020
        k(   27) = (   0.3500000  -0.3500000   0.3500000), wk =   0.0198020
        k(   28) = (   0.3250000  -0.3250000   0.3250000), wk =   0.0198020
        k(   29) = (   0.3000000  -0.3000000   0.3000000), wk =   0.0198020
        k(   30) = (   0.2750000  -0.2750000   0.2750000), wk =   0.0198020
        k(   31) = (   0.2500000  -0.2500000   0.2500000), wk =   0.0198020
        k(   32) = (   0.2250000  -0.2250000   0.2250000), wk =   0.0198020
        k(   33) = (   0.2000000  -0.2000000   0.2000000), wk =   0.0198020
        k(   34) = (   0.1750000  -0.1750000   0.1750000), wk =   0.0198020
        k(   35) = (   0.1500000  -0.1500000   0.1500000), wk =   0.0198020
        k(   36) = (   0.1250000  -0.1250000   0.1250000), wk =   0.0198020
        k(   37) = (   0.1000000  -0.1000000   0.1000000), wk =   0.0198020
        k(   38) = (   0.0750000  -0.0750000   0.0750000), wk =   0.0198020
        k(   39) = (   0.0500000  -0.0500000   0.0500000), wk =   0.0198020
        k(   40) = (   0.0250000  -0.0250000   0.0250000), wk =   0.0198020
        k(   41) = (   0.0000000   0.0000000   0.0000000), wk =   0.0198020
        k(   42) = (   0.0000000   0.0000000   0.0500000), wk =   0.0198020
        k(   43) = (   0.0000000   0.0000000   0.1000000), wk =   0.0198020
        k(   44) = (   0.0000000   0.0000000   0.1500000), wk =   0.0198020
        k(   45) = (   0.0000000   0.0000000   0.2000000), wk =   0.0198020
        k(   46) = (   0.0000000   0.0000000   0.2500000), wk =   0.0198020
        k(   47) = (   0.0000000   0.0000000   0.3000000), wk =   0.0198020
        k(   48) = (   0.0000000   0.0000000   0.3500000), wk =   0.0198020
        k(   49) = (   0.0000000   0.0000000   0.4000000), wk =   0.0198020
        k(   50) = (   0.0000000   0.0000000   0.4500000), wk =   0.0198020
        k(   51) = (   0.0000000   0.0000000   0.5000000), wk =   0.0198020
        k(   52) = (   0.0000000   0.0000000   0.5500000), wk =   0.0198020
        k(   53) = (   0.0000000   0.0000000   0.6000000), wk =   0.0198020
        k(   54) = (   0.0000000   0.0000000   0.6500000), wk =   0.0198020
        k(   55) = (   0.0000000   0.0000000   0.7000000), wk =   0.0198020
        k(   56) = (   0.0000000   0.0000000   0.7500000), wk =   0.0198020
        k(   57) = (   0.0000000   0.0000000   0.8000000), wk =   0.0198020
        k(   58) = (   0.0000000   0.0000000   0.8500000), wk =   0.0198020
        k(   59) = (   0.0000000   0.0000000   0.9000000), wk =   0.0198020
        k(   60) = (   0.0000000   0.0000000   0.9500000), wk =   0.0198020
        k(   61) = (   0.0000000   0.0000000   1.0000000), wk =   0.0198020
        k(   62) = (   0.0500000   0.0250000   0.9500000), wk =   0.0198020
        k(   63) = (   0.1000000   0.0500000   0.9000000), wk =   0.0198020
        k(   64) = (   0.1500000   0.0750000   0.8500000), wk =   0.0198020
        k(   65) = (   0.2000000   0.1000000   0.8000000), wk =   0.0198020
        k(   66) = (   0.2500000   0.1250000   0.7500000), wk =   0.0198020
        k(   67) = (   0.3000000   0.1500000   0.7000000), wk =   0.0198020
        k(   68) = (   0.3500000   0.1750000   0.6500000), wk =   0.0198020
        k(   69) = (   0.4000000   0.2000000   0.6000000), wk =   0.0198020
        k(   70) = (   0.4500000   0.2250000   0.5500000), wk =   0.0198020
        k(   71) = (   0.5000000   0.2500000   0.5000000), wk =   0.0198020
        k(   72) = (   0.5500000   0.2750000   0.4500000), wk =   0.0198020
        k(   73) = (   0.6000000   0.3000000   0.4000000), wk =   0.0198020
        k(   74) = (   0.6500000   0.3250000   0.3500000), wk =   0.0198020
        k(   75) = (   0.7000000   0.3500000   0.3000000), wk =   0.0198020
        k(   76) = (   0.7500000   0.3750000   0.2500000), wk =   0.0198020
        k(   77) = (   0.8000000   0.4000000   0.2000000), wk =   0.0198020
        k(   78) = (   0.8500000   0.4250000   0.1500000), wk =   0.0198020
        k(   79) = (   0.9000000   0.4500000   0.1000000), wk =   0.0198020
        k(   80) = (   0.9500000   0.4750000   0.0500000), wk =   0.0198020
        k(   81) = (   1.0000000   0.5000000   0.0000000), wk =   0.0198020
        k(   82) = (   0.9875000   0.5125000   0.0000000), wk =   0.0198020
        k(   83) = (   0.9750000   0.5250000   0.0000000), wk =   0.0198020
        k(   84) = (   0.9625000   0.5375000   0.0000000), wk =   0.0198020
        k(   85) = (   0.9500000   0.5500000   0.0000000), wk =   0.0198020
        k(   86) = (   0.9375000   0.5625000   0.0000000), wk =   0.0198020
        k(   87) = (   0.9250000   0.5750000   0.0000000), wk =   0.0198020
        k(   88) = (   0.9125000   0.5875000   0.0000000), wk =   0.0198020
        k(   89) = (   0.9000000   0.6000000   0.0000000), wk =   0.0198020
        k(   90) = (   0.8875000   0.6125000   0.0000000), wk =   0.0198020
        k(   91) = (   0.8750000   0.6250000   0.0000000), wk =   0.0198020
        k(   92) = (   0.8625000   0.6375000   0.0000000), wk =   0.0198020
        k(   93) = (   0.8500000   0.6500000   0.0000000), wk =   0.0198020
        k(   94) = (   0.8375000   0.6625000   0.0000000), wk =   0.0198020
        k(   95) = (   0.8250000   0.6750000   0.0000000), wk =   0.0198020
        k(   96) = (   0.8125000   0.6875000   0.0000000), wk =   0.0198020
        k(   97) = (   0.8000000   0.7000000   0.0000000), wk =   0.0198020
        k(   98) = (   0.7875000   0.7125000   0.0000000), wk =   0.0198020
        k(   99) = (   0.7750000   0.7250000   0.0000000), wk =   0.0198020
        k(  100) = (   0.7625000   0.7375000   0.0000000), wk =   0.0198020
        k(  101) = (   0.7500000   0.7500000   0.0000000), wk =   0.0198020

                       cryst. coord.
        k(    1) = (   0.5000000   0.2500000   0.7500000), wk =   0.0198020
        k(    2) = (   0.4750000   0.2625000   0.7125000), wk =   0.0198020
        k(    3) = (   0.4500000   0.2750000   0.6750000), wk =   0.0198020
        k(    4) = (   0.4250000   0.2875000   0.6375000), wk =   0.0198020
        k(    5) = (   0.4000000   0.3000000   0.6000000), wk =   0.0198020
        k(    6) = (   0.3750000   0.3125000   0.5625000), wk =   0.0198020
        k(    7) = (   0.3500000   0.3250000   0.5250000), wk =   0.0198020
        k(    8) = (   0.3250000   0.3375000   0.4875000), wk =   0.0198020
        k(    9) = (   0.3000000   0.3500000   0.4500000), wk =   0.0198020
        k(   10) = (   0.2750000   0.3625000   0.4125000), wk =   0.0198020
        k(   11) = (   0.2500000   0.3750000   0.3750000), wk =   0.0198020
        k(   12) = (   0.2250000   0.3875000   0.3375000), wk =   0.0198020
        k(   13) = (   0.2000000   0.4000000   0.3000000), wk =   0.0198020
        k(   14) = (   0.1750000   0.4125000   0.2625000), wk =   0.0198020
        k(   15) = (   0.1500000   0.4250000   0.2250000), wk =   0.0198020
        k(   16) = (   0.1250000   0.4375000   0.1875000), wk =   0.0198020
        k(   17) = (   0.1000000   0.4500000   0.1500000), wk =   0.0198020
        k(   18) = (   0.0750000   0.4625000   0.1125000), wk =   0.0198020
        k(   19) = (   0.0500000   0.4750000   0.0750000), wk =   0.0198020
        k(   20) = (   0.0250000   0.4875000   0.0375000), wk =   0.0198020
        k(   21) = (   0.0000000   0.5000000   0.0000000), wk =   0.0198020
        k(   22) = (   0.0000000   0.4750000   0.0000000), wk =   0.0198020
        k(   23) = (   0.0000000   0.4500000   0.0000000), wk =   0.0198020
        k(   24) = (   0.0000000   0.4250000   0.0000000), wk =   0.0198020
        k(   25) = (   0.0000000   0.4000000   0.0000000), wk =   0.0198020
        k(   26) = (   0.0000000   0.3750000   0.0000000), wk =   0.0198020
        k(   27) = (   0.0000000   0.3500000   0.0000000), wk =   0.0198020
        k(   28) = (   0.0000000   0.3250000   0.0000000), wk =   0.0198020
        k(   29) = (   0.0000000   0.3000000   0.0000000), wk =   0.0198020
        k(   30) = (   0.0000000   0.2750000   0.0000000), wk =   0.0198020
        k(   31) = (   0.0000000   0.2500000   0.0000000), wk =   0.0198020
        k(   32) = (   0.0000000   0.2250000   0.0000000), wk =   0.0198020
        k(   33) = (   0.0000000   0.2000000   0.0000000), wk =   0.0198020
        k(   34) = (   0.0000000   0.1750000   0.0000000), wk =   0.0198020
        k(   35) = (   0.0000000   0.1500000   0.0000000), wk =   0.0198020
        k(   36) = (   0.0000000   0.1250000   0.0000000), wk =   0.0198020
        k(   37) = (   0.0000000   0.1000000   0.0000000), wk =   0.0198020
        k(   38) = (   0.0000000   0.0750000   0.0000000), wk =   0.0198020
        k(   39) = (   0.0000000   0.0500000   0.0000000), wk =   0.0198020
        k(   40) = (   0.0000000   0.0250000   0.0000000), wk =   0.0198020
        k(   41) = (   0.0000000   0.0000000   0.0000000), wk =   0.0198020
        k(   42) = (   0.0000000   0.0250000   0.0250000), wk =   0.0198020
        k(   43) = (   0.0000000   0.0500000   0.0500000), wk =   0.0198020
        k(   44) = (   0.0000000   0.0750000   0.0750000), wk =   0.0198020
        k(   45) = (   0.0000000   0.1000000   0.1000000), wk =   0.0198020
        k(   46) = (   0.0000000   0.1250000   0.1250000), wk =   0.0198020
        k(   47) = (   0.0000000   0.1500000   0.1500000), wk =   0.0198020
        k(   48) = (   0.0000000   0.1750000   0.1750000), wk =   0.0198020
        k(   49) = (   0.0000000   0.2000000   0.2000000), wk =   0.0198020
        k(   50) = (   0.0000000   0.2250000   0.2250000), wk =   0.0198020
        k(   51) = (   0.0000000   0.2500000   0.2500000), wk =   0.0198020
        k(   52) = (   0.0000000   0.2750000   0.2750000), wk =   0.0198020
        k(   53) = (   0.0000000   0.3000000   0.3000000), wk =   0.0198020
        k(   54) = (   0.0000000   0.3250000   0.3250000), wk =   0.0198020
        k(   55) = (   0.0000000   0.3500000   0.3500000), wk =   0.0198020
        k(   56) = (   0.0000000   0.3750000   0.3750000), wk =   0.0198020
        k(   57) = (   0.0000000   0.4000000   0.4000000), wk =   0.0198020
        k(   58) = (   0.0000000   0.4250000   0.4250000), wk =   0.0198020
        k(   59) = (   0.0000000   0.4500000   0.4500000), wk =   0.0198020
        k(   60) = (   0.0000000   0.4750000   0.4750000), wk =   0.0198020
        k(   61) = (   0.0000000   0.5000000   0.5000000), wk =   0.0198020
        k(   62) = (   0.0375000   0.5000000   0.4875000), wk =   0.0198020
        k(   63) = (   0.0750000   0.5000000   0.4750000), wk =   0.0198020
        k(   64) = (   0.1125000   0.5000000   0.4625000), wk =   0.0198020
        k(   65) = (   0.1500000   0.5000000   0.4500000), wk =   0.0198020
        k(   66) = (   0.1875000   0.5000000   0.4375000), wk =   0.0198020
        k(   67) = (   0.2250000   0.5000000   0.4250000), wk =   0.0198020
        k(   68) = (   0.2625000   0.5000000   0.4125000), wk =   0.0198020
        k(   69) = (   0.3000000   0.5000000   0.4000000), wk =   0.0198020
        k(   70) = (   0.3375000   0.5000000   0.3875000), wk =   0.0198020
        k(   71) = (   0.3750000   0.5000000   0.3750000), wk =   0.0198020
        k(   72) = (   0.4125000   0.5000000   0.3625000), wk =   0.0198020
        k(   73) = (   0.4500000   0.5000000   0.3500000), wk =   0.0198020
        k(   74) = (   0.4875000   0.5000000   0.3375000), wk =   0.0198020
        k(   75) = (   0.5250000   0.5000000   0.3250000), wk =   0.0198020
        k(   76) = (   0.5625000   0.5000000   0.3125000), wk =   0.0198020
        k(   77) = (   0.6000000   0.5000000   0.3000000), wk =   0.0198020
        k(   78) = (   0.6375000   0.5000000   0.2875000), wk =   0.0198020
        k(   79) = (   0.6750000   0.5000000   0.2750000), wk =   0.0198020
        k(   80) = (   0.7125000   0.5000000   0.2625000), wk =   0.0198020
        k(   81) = (   0.7500000   0.5000000   0.2500000), wk =   0.0198020
        k(   82) = (   0.7500000   0.4937500   0.2562500), wk =   0.0198020
        k(   83) = (   0.7500000   0.4875000   0.2625000), wk =   0.0198020
        k(   84) = (   0.7500000   0.4812500   0.2687500), wk =   0.0198020
        k(   85) = (   0.7500000   0.4750000   0.2750000), wk =   0.0198020
        k(   86) = (   0.7500000   0.4687500   0.2812500), wk =   0.0198020
        k(   87) = (   0.7500000   0.4625000   0.2875000), wk =   0.0198020
        k(   88) = (   0.7500000   0.4562500   0.2937500), wk =   0.0198020
        k(   89) = (   0.7500000   0.4500000   0.3000000), wk =   0.0198020
        k(   90) = (   0.7500000   0.4437500   0.3062500), wk =   0.0198020
        k(   91) = (   0.7500000   0.4375000   0.3125000), wk =   0.0198020
        k(   92) = (   0.7500000   0.4312500   0.3187500), wk =   0.0198020
        k(   93) = (   0.7500000   0.4250000   0.3250000), wk =   0.0198020
        k(   94) = (   0.7500000   0.4187500   0.3312500), wk =   0.0198020
        k(   95) = (   0.7500000   0.4125000   0.3375000), wk =   0.0198020
        k(   96) = (   0.7500000   0.4062500   0.3437500), wk =   0.0198020
        k(   97) = (   0.7500000   0.4000000   0.3500000), wk =   0.0198020
        k(   98) = (   0.7500000   0.3937500   0.3562500), wk =   0.0198020
        k(   99) = (   0.7500000   0.3875000   0.3625000), wk =   0.0198020
        k(  100) = (   0.7500000   0.3812500   0.3687500), wk =   0.0198020
        k(  101) = (   0.7500000   0.3750000   0.3750000), wk =   0.0198020

     Dense  grid:     4909 G-vectors     FFT dimensions: (  24,  24,  24)

     Smooth grid:     3287 G-vectors     FFT dimensions: (  24,  24,  24)

     Dynamical RAM for                 wfc:       0.01 MB

     Dynamical RAM for     wfc (w. buffer):       0.56 MB

     Dynamical RAM for           str. fact:       0.01 MB

     Dynamical RAM for           local pot:       0.00 MB

     Dynamical RAM for          nlocal pot:       0.01 MB

     Dynamical RAM for                qrad:       1.23 MB

     Dynamical RAM for          rho,v,vnew:       0.06 MB

     Dynamical RAM for           G-vectors:       0.03 MB

     Dynamical RAM for          h,s,v(r/c):       0.01 MB

     Dynamical RAM for          <psi|beta>:       0.00 MB

     Dynamical RAM for                 psi:       0.01 MB

     Dynamical RAM for                hpsi:       0.01 MB

     Dynamical RAM for                spsi:       0.01 MB

     Dynamical RAM for      wfcinit/wfcrot:       0.01 MB

     Dynamical RAM for           addusdens:       1.40 MB

     Estimated static dynamical RAM per process >       1.99 MB

     Estimated max dynamical RAM per process >       3.39 MB

     Estimated total dynamical RAM >      33.90 MB

     The potential is recalculated from file :
     ./work/pwscf.save/charge-density

     Starting wfcs are    9 randomized atomic wfcs
     Checking if some PAW data can be deallocated... 

     Band Structure Calculation
     Davidson diagonalization with overlap

     Computing kpt #:     1  of   101
     total cpu time spent up to now is        0.6 secs

     Computing kpt #:     2  of   101
     total cpu time spent up to now is        0.6 secs

     Computing kpt #:     3  of   101
     total cpu time spent up to now is        0.6 secs

     Computing kpt #:     4  of   101
     total cpu time spent up to now is        0.6 secs

     Computing kpt #:     5  of   101
     total cpu time spent up to now is        0.6 secs

     Computing kpt #:     6  of   101
     total cpu time spent up to now is        0.6 secs

     Computing kpt #:     7  of   101
     total cpu time spent up to now is        0.6 secs

     Computing kpt #:     8  of   101
     total cpu time spent up to now is        0.6 secs

     Computing kpt #:     9  of   101
     total cpu time spent up to now is        0.6 secs

     Computing kpt #:    10  of   101
     total cpu time spent up to now is        0.7 secs

     Computing kpt #:    11  of   101
     total cpu time spent up to now is        0.7 secs

     Computing kpt #:    12  of   101
     total cpu time spent up to now is        0.7 secs

     Computing kpt #:    13  of   101
     total cpu time spent up to now is        0.7 secs

     Computing kpt #:    14  of   101
     total cpu time spent up to now is        0.7 secs

     Computing kpt #:    15  of   101
     total cpu time spent up to now is        0.7 secs

     Computing kpt #:    16  of   101
     total cpu time spent up to now is        0.7 secs

     Computing kpt #:    17  of   101
     total cpu time spent up to now is        0.7 secs

     Computing kpt #:    18  of   101
     total cpu time spent up to now is        0.8 secs

     Computing kpt #:    19  of   101
     total cpu time spent up to now is        0.8 secs

     Computing kpt #:    20  of   101
     total cpu time spent up to now is        0.8 secs

     Computing kpt #:    21  of   101
     total cpu time spent up to now is        0.8 secs

     Computing kpt #:    22  of   101
     total cpu time spent up to now is        0.8 secs

     Computing kpt #:    23  of   101
     total cpu time spent up to now is        0.8 secs

     Computing kpt #:    24  of   101
     total cpu time spent up to now is        0.8 secs

     Computing kpt #:    25  of   101
     total cpu time spent up to now is        0.9 secs

     Computing kpt #:    26  of   101
     total cpu time spent up to now is        0.9 secs

     Computing kpt #:    27  of   101
     total cpu time spent up to now is        0.9 secs

     Computing kpt #:    28  of   101
     total cpu time spent up to now is        0.9 secs

     Computing kpt #:    29  of   101
     total cpu time spent up to now is        0.9 secs

     Computing kpt #:    30  of   101
     total cpu time spent up to now is        0.9 secs

     Computing kpt #:    31  of   101
     total cpu time spent up to now is        0.9 secs

     Computing kpt #:    32  of   101
     total cpu time spent up to now is        0.9 secs

     Computing kpt #:    33  of   101
     total cpu time spent up to now is        1.0 secs

     Computing kpt #:    34  of   101
     total cpu time spent up to now is        1.0 secs

     Computing kpt #:    35  of   101
     total cpu time spent up to now is        1.0 secs

     Computing kpt #:    36  of   101
     total cpu time spent up to now is        1.0 secs

     Computing kpt #:    37  of   101
     total cpu time spent up to now is        1.0 secs

     Computing kpt #:    38  of   101
     total cpu time spent up to now is        1.0 secs

     Computing kpt #:    39  of   101
     total cpu time spent up to now is        1.0 secs

     Computing kpt #:    40  of   101
     total cpu time spent up to now is        1.1 secs

     Computing kpt #:    41  of   101
     total cpu time spent up to now is        1.1 secs

     Computing kpt #:    42  of   101
     total cpu time spent up to now is        1.1 secs

     Computing kpt #:    43  of   101
     total cpu time spent up to now is        1.1 secs

     Computing kpt #:    44  of   101
     total cpu time spent up to now is        1.1 secs

     Computing kpt #:    45  of   101
     total cpu time spent up to now is        1.1 secs

     Computing kpt #:    46  of   101
     total cpu time spent up to now is        1.1 secs

     Computing kpt #:    47  of   101
     total cpu time spent up to now is        1.1 secs

     Computing kpt #:    48  of   101
     total cpu time spent up to now is        1.2 secs

     Computing kpt #:    49  of   101
     total cpu time spent up to now is        1.2 secs

     Computing kpt #:    50  of   101
     total cpu time spent up to now is        1.2 secs

     Computing kpt #:    51  of   101
     total cpu time spent up to now is        1.2 secs

     Computing kpt #:    52  of   101
     total cpu time spent up to now is        1.2 secs

     Computing kpt #:    53  of   101
     total cpu time spent up to now is        1.2 secs

     Computing kpt #:    54  of   101
     total cpu time spent up to now is        1.2 secs

     Computing kpt #:    55  of   101
     total cpu time spent up to now is        1.2 secs

     Computing kpt #:    56  of   101
     total cpu time spent up to now is        1.3 secs

     Computing kpt #:    57  of   101
     total cpu time spent up to now is        1.3 secs

     Computing kpt #:    58  of   101
     total cpu time spent up to now is        1.3 secs

     Computing kpt #:    59  of   101
     total cpu time spent up to now is        1.3 secs

     Computing kpt #:    60  of   101
     total cpu time spent up to now is        1.3 secs

     Computing kpt #:    61  of   101
     total cpu time spent up to now is        1.3 secs

     Computing kpt #:    62  of   101
     total cpu time spent up to now is        1.3 secs

     Computing kpt #:    63  of   101
     total cpu time spent up to now is        1.3 secs

     Computing kpt #:    64  of   101
     total cpu time spent up to now is        1.3 secs

     Computing kpt #:    65  of   101
     total cpu time spent up to now is        1.4 secs

     Computing kpt #:    66  of   101
     total cpu time spent up to now is        1.4 secs

     Computing kpt #:    67  of   101
     total cpu time spent up to now is        1.4 secs

     Computing kpt #:    68  of   101
     total cpu time spent up to now is        1.4 secs

     Computing kpt #:    69  of   101
     total cpu time spent up to now is        1.4 secs

     Computing kpt #:    70  of   101
     total cpu time spent up to now is        1.4 secs

     Computing kpt #:    71  of   101
     total cpu time spent up to now is        1.4 secs

     Computing kpt #:    72  of   101
     total cpu time spent up to now is        1.4 secs

     Computing kpt #:    73  of   101
     total cpu time spent up to now is        1.5 secs

     Computing kpt #:    74  of   101
     total cpu time spent up to now is        1.5 secs

     Computing kpt #:    75  of   101
     total cpu time spent up to now is        1.5 secs

     Computing kpt #:    76  of   101
     total cpu time spent up to now is        1.5 secs

     Computing kpt #:    77  of   101
     total cpu time spent up to now is        1.5 secs

     Computing kpt #:    78  of   101
     total cpu time spent up to now is        1.5 secs

     Computing kpt #:    79  of   101
     total cpu time spent up to now is        1.5 secs

     Computing kpt #:    80  of   101
     total cpu time spent up to now is        1.5 secs

     Computing kpt #:    81  of   101
     total cpu time spent up to now is        1.5 secs

     Computing kpt #:    82  of   101
     total cpu time spent up to now is        1.6 secs

     Computing kpt #:    83  of   101
     total cpu time spent up to now is        1.6 secs

     Computing kpt #:    84  of   101
     total cpu time spent up to now is        1.6 secs

     Computing kpt #:    85  of   101
     total cpu time spent up to now is        1.6 secs

     Computing kpt #:    86  of   101
     total cpu time spent up to now is        1.6 secs

     Computing kpt #:    87  of   101
     total cpu time spent up to now is        1.6 secs

     Computing kpt #:    88  of   101
     total cpu time spent up to now is        1.6 secs

     Computing kpt #:    89  of   101
     total cpu time spent up to now is        1.6 secs

     Computing kpt #:    90  of   101
     total cpu time spent up to now is        1.6 secs

     Computing kpt #:    91  of   101
     total cpu time spent up to now is        1.7 secs

     Computing kpt #:    92  of   101
     total cpu time spent up to now is        1.7 secs

     Computing kpt #:    93  of   101
     total cpu time spent up to now is        1.7 secs

     Computing kpt #:    94  of   101
     total cpu time spent up to now is        1.7 secs

     Computing kpt #:    95  of   101
     total cpu time spent up to now is        1.7 secs

     Computing kpt #:    96  of   101
     total cpu time spent up to now is        1.7 secs

     Computing kpt #:    97  of   101
     total cpu time spent up to now is        1.7 secs

     Computing kpt #:    98  of   101
     total cpu time spent up to now is        1.7 secs

     Computing kpt #:    99  of   101
     total cpu time spent up to now is        1.7 secs

     Computing kpt #:   100  of   101
     total cpu time spent up to now is        1.8 secs

     Computing kpt #:   101  of   101
     total cpu time spent up to now is        1.8 secs

     ethr =  6.64E-07,  avg # of iterations = 16.6

     total cpu time spent up to now is        1.8 secs

     End of band structure calculation

          k = 0.0000 1.0000 0.5000 (   412 PWs)   bands (ev):

     8.4150   9.0176   9.0176  10.3015  11.0507  18.7236  18.7236  20.8280
    21.2910

          k = 0.0250 0.9250 0.5000 (   405 PWs)   bands (ev):

     8.4428   8.9791   9.0301  10.3013  11.0179  17.9094  18.7028  21.2194
    22.0332

          k = 0.0500 0.8500 0.5000 (   408 PWs)   bands (ev):

     8.5211   8.8709   9.0655  10.2890  10.9310  16.6177  18.6743  21.7569
    23.7051

          k = 0.0750 0.7750 0.5000 (   407 PWs)   bands (ev):

     8.6119   8.7397   9.1202  10.2390  10.8234  15.3821  18.6933  22.5143
    25.6279

          k = 0.1000 0.7000 0.5000 (   408 PWs)   bands (ev):

     8.4576   8.8430   9.1885  10.1355  10.7276  14.2850  18.7912  23.4636
    27.6917

          k = 0.1250 0.6250 0.5000 (   408 PWs)   bands (ev):

     8.2063   9.0241   9.2627   9.9983  10.6509  13.3520  18.9801  24.5758
    29.8537

          k = 0.1500 0.5500 0.5000 (   411 PWs)   bands (ev):

     7.9243   9.1990   9.3314   9.8681  10.5899  12.5914  19.2652  25.8309
    32.0367

          k = 0.1750 0.4750 0.5000 (   408 PWs)   bands (ev):

     7.6322   9.3275   9.3751   9.7820  10.5621  11.9962  19.6516  27.2122
    33.3542

          k = 0.2000 0.4000 0.5000 (   409 PWs)   bands (ev):

     7.3541   9.3325   9.4235   9.7527  10.6001  11.5423  20.1460  28.6973
    32.9634

          k = 0.2250 0.3250 0.5000 (   408 PWs)   bands (ev):

     7.1167   9.2454   9.4729   9.7552  10.7065  11.1955  20.7568  30.2237
    32.5185

          k = 0.2500 0.2500 0.5000 (   419 PWs)   bands (ev):

     6.9430   9.1368   9.4963   9.7854  10.8037  10.9641  21.4915  31.2427
    31.9679

          k = 0.2750 0.1750 0.5000 (   409 PWs)   bands (ev):

     6.8499   9.0384   9.4897   9.8597  10.6356  11.0461  22.3548  29.6810
    32.0866

          k = 0.3000 0.1000 0.5000 (   407 PWs)   bands (ev):

     6.8440   8.9672   9.4606   9.9746  10.4262  11.1832  23.3427  27.6426
    32.1123

          k = 0.3250 0.0250 0.5000 (   412 PWs)   bands (ev):

     6.9209   8.9357   9.4269  10.1089  10.2413  11.3041  24.3799  25.7146
    32.1956

          k = 0.3500-0.0500 0.5000 (   412 PWs)   bands (ev):

     7.0597   8.9638   9.4045  10.0418  10.2907  11.4037  23.5640  25.8636
    32.3666

          k = 0.3750-0.1250 0.5000 (   408 PWs)   bands (ev):

     7.2206   9.0853   9.4015   9.8874  10.4493  11.4827  21.7968  27.2094
    32.6250

          k = 0.4000-0.2000 0.5000 (   409 PWs)   bands (ev):

     7.3541   9.3325   9.4235   9.7527  10.6001  11.5423  20.1460  28.6973
    32.9634

          k = 0.4250-0.2750 0.5000 (   409 PWs)   bands (ev):

     7.4331   9.4342   9.6330   9.7551  10.7292  11.5822  18.6741  30.2793
    33.3647

          k = 0.4500-0.3500 0.5000 (   410 PWs)   bands (ev):

     7.4661   9.4622   9.5567  10.2372  10.8270  11.5967  17.4476  31.9008
    33.7867

          k = 0.4750-0.4250 0.5000 (   408 PWs)   bands (ev):

     7.4756   9.4822   9.5066  10.6950  10.8874  11.5757  16.5848  33.3637
    34.1515

          k = 0.5000-0.5000 0.5000 (   410 PWs)   bands (ev):

     7.4767   9.4895   9.4895  10.9077  10.9077  11.5451  16.2621  33.8521
    34.5547

          k = 0.4750-0.4750 0.4750 (   410 PWs)   bands (ev):

     7.4638   9.4925   9.4925  10.9007  10.9007  11.4238  16.4400  33.8694
    34.5582

          k = 0.4500-0.4500 0.4500 (   410 PWs)   bands (ev):

     7.4225   9.5014   9.5014  10.8800  10.8800  11.1114  16.9245  33.9211
    34.5694

          k = 0.4250-0.4250 0.4250 (   413 PWs)   bands (ev):

     7.3443   9.5159   9.5159  10.7081  10.8463  10.8463  17.6229  34.0057
    34.5909

          k = 0.4000-0.4000 0.4000 (   413 PWs)   bands (ev):

     7.2182   9.5352   9.5352  10.2986  10.8011  10.8011  18.4625  34.1212
    34.6259

          k = 0.3750-0.3750 0.3750 (   407 PWs)   bands (ev):

     7.0302   9.5588   9.5588   9.9389  10.7463  10.7463  19.3997  34.2646
    34.6777

          k = 0.3500-0.3500 0.3500 (   407 PWs)   bands (ev):

     6.7730   9.5849   9.5849   9.6596  10.6840  10.6840  20.4098  34.4314
    34.7493

          k = 0.3250-0.3250 0.3250 (   401 PWs)   bands (ev):

     6.4536   9.4673   9.6123   9.6123  10.6176  10.6176  21.4780  34.6168
    34.8430

          k = 0.3000-0.3000 0.3000 (   401 PWs)   bands (ev):

     6.0910   9.3505   9.6386   9.6386  10.5496  10.5496  22.5951  34.9604
    34.9607

          k = 0.2750-0.2750 0.2750 (   407 PWs)   bands (ev):

     5.7079   9.2907   9.6613   9.6613  10.4840  10.4840  23.7546  35.1026
    35.1035

          k = 0.2500-0.2500 0.2500 (   401 PWs)   bands (ev):

     5.3242   9.2713   9.6781   9.6781  10.4254  10.4254  24.9519  35.2171
    35.2728

          k = 0.2250-0.2250 0.2250 (   401 PWs)   bands (ev):

     4.9541   9.2783   9.6857   9.6857  10.3769  10.3769  26.1828  35.4062
    35.4690

          k = 0.2000-0.2000 0.2000 (   402 PWs)   bands (ev):

     4.6079   9.3026   9.6822   9.6822  10.3418  10.3418  27.4436  35.6919
    35.6922

          k = 0.1750-0.1750 0.1750 (   402 PWs)   bands (ev):

     4.2924   9.3364   9.6675   9.6675  10.3209  10.3209  28.7296  35.7265
    35.9422

          k = 0.1500-0.1500 0.1500 (   402 PWs)   bands (ev):

     4.0123   9.3748   9.6443   9.6443  10.3124  10.3124  30.0347  35.8528
    36.2177

          k = 0.1250-0.1250 0.1250 (   408 PWs)   bands (ev):

     3.7712   9.4134   9.6158   9.6158  10.3130  10.3130  31.3480  35.9620
    36.5157

          k = 0.1000-0.1000 0.1000 (   405 PWs)   bands (ev):

     3.5712   9.4497   9.5867   9.5867  10.3192  10.3192  32.6472  36.0725
    36.8310

          k = 0.0750-0.0750 0.0750 (   405 PWs)   bands (ev):

     3.4142   9.4801   9.5605   9.5605  10.3272  10.3272  33.8717  36.2345
    37.1521

          k = 0.0500-0.0500 0.0500 (   411 PWs)   bands (ev):

     3.3013   9.5030   9.5398   9.5398  10.3345  10.3345  34.8449  36.5967
    37.4554

          k = 0.0250-0.0250 0.0250 (   411 PWs)   bands (ev):

     3.2333   9.5175   9.5268   9.5268  10.3396  10.3396  35.3259  37.3005
    37.6927

          k = 0.0000 0.0000 0.0000 (   411 PWs)   bands (ev):

     3.2105   9.5224   9.5224   9.5224  10.3414  10.3414  35.4401  37.7875
    37.7875

          k = 0.0000 0.0000 0.0500 (   411 PWs)   bands (ev):

     3.2409   9.5133   9.5295   9.5295  10.3332  10.3447  35.3096  37.3774
    37.3776

          k = 0.0000 0.0000 0.1000 (   411 PWs)   bands (ev):

     3.3315   9.4865   9.5511   9.5511  10.3090  10.3546  34.9704  36.5471
    36.5471

          k = 0.0000 0.0000 0.1500 (   407 PWs)   bands (ev):

     3.4819   9.4427   9.5870   9.5870  10.2700  10.3707  34.5194  35.6180
    35.6180

          k = 0.0000 0.0000 0.2000 (   399 PWs)   bands (ev):

     3.6907   9.3831   9.6368   9.6368  10.2181  10.3930  34.0285  34.6753
    34.6753

          k = 0.0000 0.0000 0.2500 (   399 PWs)   bands (ev):

     3.9561   9.3094   9.6996   9.6996  10.1548  10.4206  33.5375  33.7459
    33.7459

          k = 0.0000 0.0000 0.3000 (   399 PWs)   bands (ev):

     4.2752   9.2236   9.7751   9.7751  10.0849  10.4528  32.8415  32.8415
    33.0672

          k = 0.0000 0.0000 0.3500 (   407 PWs)   bands (ev):

     4.6438   9.1279   9.8620   9.8620  10.0137  10.4887  31.9690  31.9690
    32.6275

          k = 0.0000 0.0000 0.4000 (   407 PWs)   bands (ev):

     5.0556   9.0252   9.9487   9.9599   9.9599  10.5281  31.1337  31.1337
    32.2238

          k = 0.0000 0.0000 0.4500 (   415 PWs)   bands (ev):

     5.5007   8.9180   9.9003  10.0666  10.0666  10.5697  30.3397  30.3397
    31.8576

          k = 0.0000 0.0000 0.5000 (   415 PWs)   bands (ev):

     5.9640   8.8091   9.8866  10.1809  10.1809  10.6125  29.5914  29.5914
    30.8890

          k = 0.0000 0.0000 0.5500 (   415 PWs)   bands (ev):

     6.4216   8.7010   9.9316  10.3001  10.3001  10.6554  28.8929  28.8929
    29.4813

          k = 0.0000 0.0000 0.6000 (   423 PWs)   bands (ev):

     6.8393   8.5962  10.0696  10.4211  10.4211  10.6973  28.0473  28.2484
    28.2484

          k = 0.0000 0.0000 0.6500 (   419 PWs)   bands (ev):

     7.1787   8.4979  10.3379  10.5420  10.5420  10.7374  26.6271  27.6629
    27.6629

          k = 0.0000 0.0000 0.7000 (   420 PWs)   bands (ev):

     7.4162   8.4077  10.6581  10.6581  10.7568  10.7745  25.2444  27.1411
    27.1411

          k = 0.0000 0.0000 0.7500 (   416 PWs)   bands (ev):

     7.5589   8.3279  10.7661  10.7661  10.8077  11.3132  23.9184  26.6880
    26.6880

          k = 0.0000 0.0000 0.8000 (   416 PWs)   bands (ev):

     7.6325   8.2601  10.8361  10.8617  10.8617  11.9662  22.6703  26.3086
    26.3086

          k = 0.0000 0.0000 0.8500 (   412 PWs)   bands (ev):

     7.6649   8.2054  10.8596  10.9412  10.9412  12.6609  21.5330  26.0076
    26.0076

          k = 0.0000 0.0000 0.9000 (   412 PWs)   bands (ev):

     7.6761   8.1658  10.8764  11.0008  11.0008  13.3228  20.5646  25.7892
    25.7892

          k = 0.0000 0.0000 0.9500 (   408 PWs)   bands (ev):

     7.6787   8.1417  10.8866  11.0380  11.0380  13.8349  19.8720  25.6568
    25.6568

          k = 0.0000 0.0000 1.0000 (   412 PWs)   bands (ev):

     7.6782   8.1336  10.8901  11.0504  11.0504  14.0362  19.6110  25.6124
    25.6124

          k = 0.0500 0.0250 0.9500 (   409 PWs)   bands (ev):

     7.6967   8.1527  10.8713  10.9707  11.0358  13.9376  19.8881  25.2252
    25.6555

          k = 0.1000 0.0500 0.9000 (   413 PWs)   bands (ev):

     7.7486   8.2072  10.7249  10.8261  11.0033  13.7041  20.6461  24.3443
    25.7805

          k = 0.1500 0.0750 0.8500 (   414 PWs)   bands (ev):

     7.8298   8.2941  10.3849  10.7132  10.9707  13.4364  21.7475  23.3186
    25.9764

          k = 0.2000 0.1000 0.8000 (   414 PWs)   bands (ev):

     7.9273   8.4089   9.9980  10.5614  10.9398  13.1836  22.2782  23.1136
    26.2308

          k = 0.2500 0.1250 0.7500 (   410 PWs)   bands (ev):

     8.0113   8.5492   9.6477  10.3857  10.9056  12.9515  21.3365  24.6297
    26.5373

          k = 0.3000 0.1500 0.7000 (   410 PWs)   bands (ev):

     8.0282   8.7208   9.4145  10.2024  10.8643  12.7333  20.4862  26.2665
    26.9210

          k = 0.3500 0.1750 0.6500 (   409 PWs)   bands (ev):

     7.9457   8.9307   9.3374  10.0266  10.8142  12.5258  19.7471  27.2203
    28.1571

          k = 0.4000 0.2000 0.6000 (   413 PWs)   bands (ev):

     7.8112   9.1541   9.3872   9.8716  10.7572  12.3359  19.1235  27.6968
    30.0221

          k = 0.4500 0.2250 0.5500 (   407 PWs)   bands (ev):

     7.6938   9.3071   9.5468   9.7509  10.7070  12.1825  18.6128  28.2257
    31.9487

          k = 0.5000 0.2500 0.5000 (   406 PWs)   bands (ev):

     7.6322   9.3645   9.6755   9.7263  10.7035  12.0991  18.2083  28.8283
    33.5409

          k = 0.5500 0.2750 0.4500 (   406 PWs)   bands (ev):

     7.6396   9.3526   9.6632   9.7870  10.7829  12.1411  17.9013  29.4990
    32.1622

          k = 0.6000 0.3000 0.4000 (   407 PWs)   bands (ev):

     7.7146   9.2852   9.6850   9.7489  10.8820  12.3754  17.6843  30.0667
    30.6285

          k = 0.6500 0.3250 0.3500 (   409 PWs)   bands (ev):

     7.8463   9.1709   9.6336   9.7820  10.9253  12.8199  17.5532  28.7878
    30.7365

          k = 0.7000 0.3500 0.3000 (   409 PWs)   bands (ev):

     8.0175   9.0244   9.5437   9.8883  10.9189  13.4325  17.5092  27.2586
    29.8431

          k = 0.7500 0.3750 0.2500 (   409 PWs)   bands (ev):

     8.2074   8.8711   9.4515  10.0268  10.8931  14.1731  17.5580  25.8173
    28.1384

          k = 0.8000 0.4000 0.2000 (   408 PWs)   bands (ev):

     8.3910   8.7393   9.3585  10.1681  10.8769  15.0203  17.7086  24.4825
    26.3620

          k = 0.8500 0.4250 0.1500 (   407 PWs)   bands (ev):

     8.5048   8.6906   9.2678  10.2691  10.8983  15.9617  17.9666  23.2682
    24.6600

          k = 0.9000 0.4500 0.1000 (   406 PWs)   bands (ev):

     8.4743   8.7950   9.1828  10.3070  10.9605  16.9779  18.3196  22.1975
    23.1004

          k = 0.9500 0.4750 0.0500 (   405 PWs)   bands (ev):

     8.4312   8.9170   9.1023  10.3064  11.0248  18.0009  18.6866  21.3118
    21.8259

          k = 1.0000 0.5000 0.0000 (   412 PWs)   bands (ev):

     8.4150   9.0176   9.0176  10.3015  11.0507  18.7236  18.7236  20.8280
    21.2910

          k = 0.9875 0.5125 0.0000 (   408 PWs)   bands (ev):

     8.4144   8.9723   9.0637  10.3029  11.0500  18.5518  18.8668  20.8300
    21.3302

          k = 0.9750 0.5250 0.0000 (   408 PWs)   bands (ev):

     8.4119   8.9269   9.1108  10.3068  11.0475  18.3871  18.9463  20.8183
    21.4644

          k = 0.9625 0.5375 0.0000 (   408 PWs)   bands (ev):

     8.4080   8.8821   9.1589  10.3129  11.0432  18.2296  18.9718  20.7870
    21.6896

          k = 0.9500 0.5500 0.0000 (   404 PWs)   bands (ev):

     8.4028   8.8382   9.2078  10.3210  11.0373  18.0796  18.9580  20.7449
    21.9817

          k = 0.9375 0.5625 0.0000 (   404 PWs)   bands (ev):

     8.3961   8.7955   9.2572  10.3308  11.0297  17.9373  18.9187  20.6993
    22.3193

          k = 0.9250 0.5750 0.0000 (   404 PWs)   bands (ev):

     8.3882   8.7546   9.3067  10.3420  11.0204  17.8029  18.8642  20.6538
    22.6879

          k = 0.9125 0.5875 0.0000 (   404 PWs)   bands (ev):

     8.3791   8.7158   9.3563  10.3543  11.0096  17.6765  18.8014  20.6102
    23.0781

          k = 0.9000 0.6000 0.0000 (   405 PWs)   bands (ev):

     8.3689   8.6795   9.4054  10.3673  10.9974  17.5585  18.7351  20.5693
    23.4836

          k = 0.8875 0.6125 0.0000 (   410 PWs)   bands (ev):

     8.3577   8.6461   9.4535  10.3804  10.9838  17.4490  18.6684  20.5315
    23.8999

          k = 0.8750 0.6250 0.0000 (   410 PWs)   bands (ev):

     8.3458   8.6161   9.5006  10.3939  10.9694  17.3482  18.6035  20.4971
    24.3236

          k = 0.8625 0.6375 0.0000 (   410 PWs)   bands (ev):

     8.3333   8.5894   9.5461  10.4071  10.9542  17.2563  18.5420  20.4661
    24.7515

          k = 0.8500 0.6500 0.0000 (   410 PWs)   bands (ev):

     8.3205   8.5662   9.5894  10.4198  10.9386  17.1735  18.4848  20.4385
    25.1803

          k = 0.8375 0.6625 0.0000 (   410 PWs)   bands (ev):

     8.3078   8.5464   9.6300  10.4317  10.9229  17.1000  18.4329  20.4143
    25.6062

          k = 0.8250 0.6750 0.0000 (   410 PWs)   bands (ev):

     8.2957   8.5298   9.6671  10.4425  10.9077  17.0359  18.3869  20.3935
    26.0243

          k = 0.8125 0.6875 0.0000 (   407 PWs)   bands (ev):

     8.2845   8.5165   9.7002  10.4522  10.8936  16.9814  18.3472  20.3760
    26.4275

          k = 0.8000 0.7000 0.0000 (   409 PWs)   bands (ev):

     8.2744   8.5056   9.7286  10.4603  10.8809  16.9366  18.3143  20.3617
    26.8056

          k = 0.7875 0.7125 0.0000 (   409 PWs)   bands (ev):

     8.2663   8.4976   9.7515  10.4668  10.8702  16.9017  18.2885  20.3506
    27.1433

          k = 0.7750 0.7250 0.0000 (   408 PWs)   bands (ev):

     8.2608   8.4920   9.7682  10.4714  10.8622  16.8767  18.2699  20.3428
    27.4185

          k = 0.7625 0.7375 0.0000 (   409 PWs)   bands (ev):

     8.2570   8.4886   9.7786  10.4741  10.8572  16.8617  18.2586  20.3381
    27.6025

          k = 0.7500 0.7500 0.0000 (   409 PWs)   bands (ev):

     8.2558   8.4875   9.7821  10.4751  10.8555  16.8567  18.2549  20.3365
    27.6679

     Writing all to output data dir ./work/pwscf.save/

     init_run     :      0.20s CPU      0.22s WALL (       1 calls)
     electrons    :      0.72s CPU      1.23s WALL (       1 calls)

     Called by init_run:
     wfcinit      :      0.00s CPU      0.00s WALL (       1 calls)
     wfcinit:atom :      0.00s CPU      0.00s WALL (     101 calls)
     wfcinit:wfcr :      0.05s CPU      0.06s WALL (     101 calls)
     potinit      :      0.03s CPU      0.06s WALL (       1 calls)
     hinit0       :      0.15s CPU      0.16s WALL (       1 calls)

     Called by electrons:
     c_bands      :      0.72s CPU      1.23s WALL (       1 calls)
     v_of_rho     :      0.00s CPU      0.00s WALL (       1 calls)
     v_h          :      0.00s CPU      0.00s WALL (       1 calls)
     v_xc         :      0.00s CPU      0.00s WALL (       1 calls)
     newd         :      0.00s CPU      0.00s WALL (       1 calls)
     PAW_pot      :      0.03s CPU      0.04s WALL (       1 calls)

     Called by c_bands:
     init_us_2    :      0.00s CPU      0.00s WALL (     101 calls)
     init_us_2:cp :      0.00s CPU      0.00s WALL (     101 calls)
     cegterg      :      0.61s CPU      0.65s WALL (     127 calls)

     Called by sum_band:

     Called by *egterg:
     cdiaghg      :      0.11s CPU      0.12s WALL (    1777 calls)
     cegterg:over :      0.04s CPU      0.04s WALL (    1676 calls)
     cegterg:upda :      0.01s CPU      0.01s WALL (    1676 calls)
     cegterg:last :      0.01s CPU      0.01s WALL (    1046 calls)
     h_psi        :      0.46s CPU      0.49s WALL (    1904 calls)
     s_psi        :      0.01s CPU      0.01s WALL (    1904 calls)
     g_psi        :      0.00s CPU      0.00s WALL (    1676 calls)

     Called by h_psi:
     h_psi:calbec :      0.03s CPU      0.03s WALL (    1904 calls)
     vloc_psi     :      0.42s CPU      0.45s WALL (    1904 calls)
     add_vuspsi   :      0.01s CPU      0.01s WALL (    1904 calls)

     General routines
     calbec       :      0.02s CPU      0.03s WALL (    1904 calls)
     fft          :      0.13s CPU      0.13s WALL (      13 calls)
     ffts         :      0.00s CPU      0.00s WALL (       1 calls)
     fftw         :      0.39s CPU      0.41s WALL (   20658 calls)
     interpolate  :      0.00s CPU      0.00s WALL (       1 calls)

     Parallel routines

     PAW routines
     PAW_pot      :      0.03s CPU      0.04s WALL (       1 calls)

     PWSCF        :      1.17s CPU      2.54s WALL


   This run was terminated on:  15:59: 2  22Sep2023            

=------------------------------------------------------------------------------=
   JOB DONE.
=------------------------------------------------------------------------------=
