
     Program BANDS v.7.1 starts on 22Sep2023 at 11:30:46 

     This program is part of the open-source Quantum ESPRESSO suite
     for quantum simulation of materials; please cite
         "P. Giannozzi et al., J. Phys.:Condens. Matter 21 395502 (2009);
         "P. Giannozzi et al., J. Phys.:Condens. Matter 29 465901 (2017);
         "P. Giannozzi et al., J. Chem. Phys. 152 154105 (2020);
          URL http://www.quantum-espresso.org", 
     in publications or presentations arising from this work. More details at
     http://www.quantum-espresso.org/quote

     Parallel version (MPI & OpenMP), running on      10 processor cores
     Number of MPI processes:                10
     Threads/MPI process:                     1

     MPI processes distributed on     1 nodes
     R & G space division:  proc/nbgrp/npool/nimage =      10
     11742 MiB available memory on the printing compute node when the environment starts


     Reading xml data from directory:

     ./work/pwscf.save/
     file Fe.pbe-spn-kjpaw_psl.1.0.0.UPF: wavefunction(s)  3P 3D renormalized
     file Al.pbe-n-kjpaw_psl.1.0.0.UPF: wavefunction(s)  3S 3P renormalized
     file V.pbe-spn-kjpaw_psl.1.0.0.UPF: wavefunction(s)  3P 3D renormalized

     IMPORTANT: XC functional enforced from input :
     Exchange-correlation= PBE
                           (   1   4   3   4   0   0   0)
     Any further DFT definition will be discarded
     Please, verify this is what you really want


     Parallelization info
     --------------------
     sticks:   dense  smooth     PW     G-vecs:    dense   smooth      PW
     Min         582     259     74                33484     9897    1493
     Max         583     260     75                33487     9900    1494
     Sum        5829    2593    741               334867    98985   14939

     Using Slab Decomposition


     Check: negative core charge=   -0.000001
     Reading collected, re-writing distributed wavefunctions
     high-symmetry point:  0.5000 0.2500 0.7500   x coordinate   0.0000
     high-symmetry point:  0.0000 0.5000 0.0000   x coordinate   0.9354
     high-symmetry point:  0.0000 0.0000 0.0000   x coordinate   1.4354
     high-symmetry point:  0.0000 0.5000 0.5000   x coordinate   2.1425
     high-symmetry point:  0.7500 0.5000 0.2500   x coordinate   2.9331
     high-symmetry point:  0.7500 0.3750 0.3750   x coordinate   3.1099

     Plottable bands (eV) written to file bands.out.gnu
     Bands written to file bands.out

 **************************************************************************

                    xk=(   0.50000,   0.25000,   0.75000  )

     point group C_2v (mm2) 
     there are  4 classes
     the character table:

       E     C2    s_v   s_v' 
A_1    1.00  1.00  1.00  1.00
A_2    1.00  1.00 -1.00 -1.00
B_1    1.00 -1.00  1.00 -1.00
B_2    1.00 -1.00 -1.00  1.00

     the symmetry operations in each class and the name of the first element:

     E        1
                                                                 
     C2       2
                                                                 
     s_v      3
                                                                 
     s_v'     4
                                                                 

     Band symmetry, C_2v (mm2)  point group:

     e(  1 -  2) =    -69.59715  eV     2   --> A_1  D_1  S_1  
     e(  1 -  2) =    -69.59715  eV     2   --> B_2  D_4  S_4  
     e(  3 -  6) =    -69.59301  eV     4   --> A_1  D_1  S_1  
     e(  3 -  6) =    -69.59301  eV     4   --> A_2  D_2  S_2  
     e(  3 -  6) =    -69.59301  eV     4   --> B_1  D_3  S_3  
     e(  3 -  6) =    -69.59301  eV     4   --> B_2  D_4  S_4  
     e(  7 -  8) =    -69.58890  eV     2   --> A_1  D_1  S_1  
     e(  7 -  8) =    -69.58890  eV     2   --> B_2  D_4  S_4  
     e(  9 -  9) =    -47.37375  eV     1   --> B_1  D_3  S_3  
     e( 10 - 10) =    -47.37352  eV     1   --> B_2  D_4  S_4  
     e( 11 - 11) =    -47.37329  eV     1   --> A_1  D_1  S_1  
     e( 12 - 12) =    -46.96749  eV     1   --> B_2  D_4  S_4  
     e( 13 - 13) =    -35.70956  eV     1   --> A_2  D_2  S_2  
     e( 14 - 14) =    -35.70931  eV     1   --> A_1  D_1  S_1  
     e( 15 - 15) =    -35.70473  eV     1   --> B_1  D_3  S_3  
     e( 16 - 16) =    -35.70442  eV     1   --> B_2  D_4  S_4  
     e( 17 - 18) =    -35.70321  eV     2   --> A_2  D_2  S_2  
     e( 17 - 18) =    -35.70321  eV     2   --> B_1  D_3  S_3  
     e( 19 - 20) =    -35.70284  eV     2   --> A_1  D_1  S_1  
     e( 19 - 20) =    -35.70284  eV     2   --> B_2  D_4  S_4  
     e( 21 - 21) =    -35.68363  eV     1   --> A_1  D_1  S_1  
     e( 22 - 22) =    -35.68348  eV     1   --> B_2  D_4  S_4  
     e( 23 - 23) =    -35.68073  eV     1   --> A_1  D_1  S_1  
     e( 24 - 24) =    -35.68057  eV     1   --> A_2  D_2  S_2  
     e( 25 - 25) =    -35.67926  eV     1   --> B_1  D_3  S_3  
     e( 26 - 26) =    -35.67911  eV     1   --> B_2  D_4  S_4  
     e( 27 - 27) =    -35.67442  eV     1   --> A_1  D_1  S_1  
     e( 28 - 28) =    -35.67428  eV     1   --> B_2  D_4  S_4  
     e( 29 - 30) =    -35.65627  eV     2   --> A_1  D_1  S_1  
     e( 29 - 30) =    -35.65627  eV     2   --> B_2  D_4  S_4  
     e( 31 - 32) =    -35.65604  eV     2   --> A_2  D_2  S_2  
     e( 31 - 32) =    -35.65604  eV     2   --> B_1  D_3  S_3  
     e( 33 - 33) =    -35.65196  eV     1   --> B_1  D_3  S_3  
     e( 34 - 34) =    -35.65172  eV     1   --> B_2  D_4  S_4  
     e( 35 - 35) =    -35.65153  eV     1   --> A_2  D_2  S_2  
     e( 36 - 36) =    -35.65134  eV     1   --> A_1  D_1  S_1  
     e( 37 - 37) =    -21.21946  eV     1   --> A_1  D_1  S_1  
     e( 38 - 38) =    -21.21291  eV     1   --> B_1  D_3  S_3  
     e( 39 - 39) =    -21.21273  eV     1   --> B_2  D_4  S_4  
     e( 40 - 40) =    -21.21209  eV     1   --> A_1  D_1  S_1  
     e( 41 - 41) =    -21.21065  eV     1   --> A_2  D_2  S_2  
     e( 42 - 42) =    -21.20976  eV     1   --> A_1  D_1  S_1  
     e( 43 - 43) =    -21.20693  eV     1   --> B_2  D_4  S_4  
     e( 44 - 44) =    -21.20632  eV     1   --> B_1  D_3  S_3  
     e( 45 - 45) =    -21.20482  eV     1   --> A_2  D_2  S_2  
     e( 46 - 48) =    -20.81942  eV     3   --> A_1  D_1  S_1  
     e( 46 - 48) =    -20.81942  eV     3   --> A_2  D_2  S_2  
     e( 46 - 48) =    -20.81942  eV     3   --> B_2  D_4  S_4  
     e( 49 - 49) =      9.33422  eV     1   --> A_1  D_1  S_1  
     e( 50 - 50) =      9.37392  eV     1   --> B_2  D_4  S_4  
     e( 51 - 51) =     10.70440  eV     1   --> A_1  D_1  S_1  
     e( 52 - 52) =     10.74233  eV     1   --> A_2  D_2  S_2  
     e( 53 - 53) =     11.90623  eV     1   --> B_1  D_3  S_3  
     e( 54 - 54) =     11.93943  eV     1   --> B_2  D_4  S_4  
     e( 55 - 55) =     12.70587  eV     1   --> A_1  D_1  S_1  
     e( 56 - 56) =     12.73529  eV     1   --> B_2  D_4  S_4  
     e( 57 - 57) =     13.19742  eV     1   --> A_1  D_1  S_1  
     e( 58 - 58) =     13.22727  eV     1   --> A_2  D_2  S_2  
     e( 59 - 59) =     13.59872  eV     1   --> A_1  D_1  S_1  
     e( 60 - 60) =     13.65035  eV     1   --> B_2  D_4  S_4  
     e( 61 - 61) =     13.88817  eV     1   --> B_1  D_3  S_3  
     e( 62 - 62) =     13.93506  eV     1   --> A_2  D_2  S_2  
     e( 63 - 63) =     14.06073  eV     1   --> B_1  D_3  S_3  
     e( 64 - 64) =     14.10270  eV     1   --> B_2  D_4  S_4  
     e( 65 - 65) =     14.44602  eV     1   --> B_1  D_3  S_3  
     e( 66 - 66) =     14.44840  eV     1   --> B_2  D_4  S_4  
     e( 67 - 67) =     14.58300  eV     1   --> A_1  D_1  S_1  
     e( 68 - 68) =     14.61787  eV     1   --> B_2  D_4  S_4  
     e( 69 - 69) =     14.74003  eV     1   --> A_2  D_2  S_2  
     e( 70 - 70) =     14.75650  eV     1   --> B_1  D_3  S_3  
     e( 71 - 71) =     14.97378  eV     1   --> A_1  D_1  S_1  
     e( 72 - 72) =     14.98369  eV     1   --> B_2  D_4  S_4  
     e( 73 - 73) =     15.02047  eV     1   --> B_1  D_3  S_3  
     e( 74 - 74) =     15.05675  eV     1   --> A_2  D_2  S_2  
     e( 75 - 75) =     15.06662  eV     1   --> A_1  D_1  S_1  
     e( 76 - 76) =     15.08300  eV     1   --> B_2  D_4  S_4  
     e( 77 - 77) =     15.29840  eV     1   --> B_2  D_4  S_4  
     e( 78 - 78) =     15.36032  eV     1   --> A_1  D_1  S_1  
     e( 79 - 79) =     15.60079  eV     1   --> A_2  D_2  S_2  
     e( 80 - 80) =     15.62157  eV     1   --> B_1  D_3  S_3  
     e( 81 - 81) =     15.67092  eV     1   --> B_2  D_4  S_4  
     e( 82 - 82) =     15.67417  eV     1   --> B_1  D_3  S_3  
     e( 83 - 83) =     15.79954  eV     1   --> A_2  D_2  S_2  
     e( 84 - 84) =     15.81066  eV     1   --> A_1  D_1  S_1  
     e( 85 - 85) =     15.88546  eV     1   --> A_2  D_2  S_2  
     e( 86 - 86) =     15.89347  eV     1   --> A_1  D_1  S_1  
     e( 87 - 87) =     15.95188  eV     1   --> B_2  D_4  S_4  
     e( 88 - 88) =     15.95947  eV     1   --> B_1  D_3  S_3  
     e( 89 - 89) =     16.20911  eV     1   --> A_1  D_1  S_1  
     e( 90 - 90) =     16.21623  eV     1   --> B_2  D_4  S_4  
     e( 91 - 91) =     16.22289  eV     1   --> B_1  D_3  S_3  
     e( 92 - 92) =     16.22604  eV     1   --> A_2  D_2  S_2  
     e( 93 - 93) =     16.39159  eV     1   --> A_2  D_2  S_2  
     e( 94 - 94) =     16.39353  eV     1   --> A_1  D_1  S_1  
     e( 95 - 95) =     16.62174  eV     1   --> A_1  D_1  S_1  
     e( 96 - 96) =     16.62696  eV     1   --> B_2  D_4  S_4  
     e( 97 - 97) =     17.84572  eV     1   --> A_2  D_2  S_2  
     e( 98 - 98) =     17.85881  eV     1   --> B_1  D_3  S_3  
     e( 99 - 99) =     17.95590  eV     1   --> B_1  D_3  S_3  
     e(100 -100) =     18.00874  eV     1   --> B_2  D_4  S_4  
     e(101 -101) =     18.02295  eV     1   --> A_2  D_2  S_2  
     e(102 -102) =     18.05650  eV     1   --> A_1  D_1  S_1  
     e(103 -103) =     18.15537  eV     1   --> A_1  D_1  S_1  
     e(104 -104) =     18.19033  eV     1   --> B_2  D_4  S_4  
     e(105 -105) =     18.32489  eV     1   --> B_1  D_3  S_3  
     e(106 -106) =     18.33109  eV     1   --> A_2  D_2  S_2  
     e(107 -107) =     18.36795  eV     1   --> A_1  D_1  S_1  
     e(108 -108) =     18.45833  eV     1   --> B_2  D_4  S_4  
     e(109 -109) =     18.50475  eV     1   --> B_1  D_3  S_3  
     e(110 -110) =     18.50563  eV     1   --> A_1  D_1  S_1  
     e(111 -111) =     18.53835  eV     1   --> A_2  D_2  S_2  
     e(112 -112) =     18.61065  eV     1   --> B_2  D_4  S_4  
     e(113 -113) =     18.86985  eV     1   --> B_1  D_3  S_3  
     e(114 -114) =     18.92414  eV     1   --> B_2  D_4  S_4  
     e(115 -115) =     19.73049  eV     1   --> B_2  D_4  S_4  
     e(116 -116) =     19.76873  eV     1   --> A_1  D_1  S_1  
     e(117 -117) =     20.17406  eV     1   --> B_1  D_3  S_3  
     e(118 -118) =     20.23828  eV     1   --> B_2  D_4  S_4  
     e(119 -119) =     20.34949  eV     1   --> A_1  D_1  S_1  
     e(120 -120) =     20.36144  eV     1   --> A_2  D_2  S_2  
     e(121 -121) =     21.56186  eV     1   --> A_2  D_2  S_2  
     e(122 -122) =     21.58048  eV     1   --> B_1  D_3  S_3  
     e(123 -123) =     21.91772  eV     1   --> A_1  D_1  S_1  
     e(124 -124) =     21.93330  eV     1   --> B_2  D_4  S_4  

 **************************************************************************

 **************************************************************************

                    xk=(   0.47500,   0.26250,   0.71250  )

     point group C_1 (1)    
     there are  1 classes
     the character table:

       E    
A      1.00

     the symmetry operations in each class and the name of the first element:

     E        1
                                                                 

     Band symmetry, C_1 (1)     point group:

     e(  1 -  1) =    -69.59701  eV     1   --> A              
     e(  2 -  2) =    -69.59656  eV     1   --> A              
     e(  3 -  3) =    -69.59342  eV     1   --> A              
     e(  4 -  4) =    -69.59307  eV     1   --> A              
     e(  5 -  5) =    -69.59295  eV     1   --> A              
     e(  6 -  6) =    -69.59260  eV     1   --> A              
     e(  7 -  7) =    -69.58942  eV     1   --> A              
     e(  8 -  8) =    -69.58899  eV     1   --> A              
     e(  9 -  9) =    -47.37371  eV     1   --> A              
     e( 10 - 10) =    -47.37353  eV     1   --> A              
     e( 11 - 11) =    -47.37332  eV     1   --> A              
     e( 12 - 12) =    -46.96749  eV     1   --> A              
     e( 13 - 13) =    -35.70737  eV     1   --> A              
     e( 14 - 14) =    -35.70711  eV     1   --> A              
     e( 15 - 15) =    -35.70257  eV     1   --> A              
     e( 16 - 16) =    -35.70247  eV     1   --> A              
     e( 17 - 17) =    -35.70228  eV     1   --> A              
     e( 18 - 18) =    -35.70185  eV     1   --> A              
     e( 19 - 19) =    -35.70014  eV     1   --> A              
     e( 20 - 20) =    -35.69949  eV     1   --> A              
     e( 21 - 21) =    -35.68600  eV     1   --> A              
     e( 22 - 22) =    -35.68300  eV     1   --> A              
     e( 23 - 23) =    -35.68264  eV     1   --> A              
     e( 24 - 24) =    -35.68056  eV     1   --> A              
     e( 25 - 25) =    -35.67750  eV     1   --> A              
     e( 26 - 26) =    -35.67709  eV     1   --> A              
     e( 27 - 27) =    -35.67675  eV     1   --> A              
     e( 28 - 28) =    -35.67184  eV     1   --> A              
     e( 29 - 29) =    -35.65938  eV     1   --> A              
     e( 30 - 30) =    -35.65896  eV     1   --> A              
     e( 31 - 31) =    -35.65705  eV     1   --> A              
     e( 32 - 32) =    -35.65653  eV     1   --> A              
     e( 33 - 33) =    -35.65521  eV     1   --> A              
     e( 34 - 34) =    -35.65462  eV     1   --> A              
     e( 35 - 35) =    -35.65319  eV     1   --> A              
     e( 36 - 36) =    -35.65262  eV     1   --> A              
     e( 37 - 37) =    -21.21985  eV     1   --> A              
     e( 38 - 38) =    -21.21268  eV     1   --> A              
     e( 39 - 39) =    -21.21253  eV     1   --> A              
     e( 40 - 40) =    -21.21196  eV     1   --> A              
     e( 41 - 41) =    -21.21093  eV     1   --> A              
     e( 42 - 42) =    -21.21010  eV     1   --> A              
     e( 43 - 43) =    -21.20662  eV     1   --> A              
     e( 44 - 44) =    -21.20617  eV     1   --> A              
     e( 45 - 45) =    -21.20486  eV     1   --> A              
     e( 46 - 48) =    -20.81941  eV     3   -->   3 A              
     e( 49 - 49) =      9.36350  eV     1   --> A              
     e( 50 - 50) =      9.57246  eV     1   --> A              
     e( 51 - 51) =     10.65245  eV     1   --> A              
     e( 52 - 52) =     10.69647  eV     1   --> A              
     e( 53 - 53) =     11.83254  eV     1   --> A              
     e( 54 - 54) =     11.87066  eV     1   --> A              
     e( 55 - 55) =     12.56379  eV     1   --> A              
     e( 56 - 56) =     12.72394  eV     1   --> A              
     e( 57 - 57) =     13.27869  eV     1   --> A              
     e( 58 - 58) =     13.31078  eV     1   --> A              
     e( 59 - 59) =     13.54962  eV     1   --> A              
     e( 60 - 60) =     13.61009  eV     1   --> A              
     e( 61 - 61) =     13.83688  eV     1   --> A              
     e( 62 - 62) =     13.92529  eV     1   --> A              
     e( 63 - 63) =     14.00199  eV     1   --> A              
     e( 64 - 64) =     14.04470  eV     1   --> A              
     e( 65 - 65) =     14.50854  eV     1   --> A              
     e( 66 - 66) =     14.51010  eV     1   --> A              
     e( 67 - 67) =     14.61676  eV     1   --> A              
     e( 68 - 68) =     14.67315  eV     1   --> A              
     e( 69 - 69) =     14.76844  eV     1   --> A              
     e( 70 - 70) =     14.79548  eV     1   --> A              
     e( 71 - 71) =     14.95586  eV     1   --> A              
     e( 72 - 72) =     14.98188  eV     1   --> A              
     e( 73 - 73) =     15.01877  eV     1   --> A              
     e( 74 - 74) =     15.03598  eV     1   --> A              
     e( 75 - 75) =     15.05527  eV     1   --> A              
     e( 76 - 76) =     15.10815  eV     1   --> A              
     e( 77 - 77) =     15.28787  eV     1   --> A              
     e( 78 - 78) =     15.34615  eV     1   --> A              
     e( 79 - 79) =     15.55515  eV     1   --> A              
     e( 80 - 80) =     15.61577  eV     1   --> A              
     e( 81 - 81) =     15.65184  eV     1   --> A              
     e( 82 - 82) =     15.68055  eV     1   --> A              
     e( 83 - 83) =     15.72855  eV     1   --> A              
     e( 84 - 84) =     15.75535  eV     1   --> A              
     e( 85 - 85) =     15.90387  eV     1   --> A              
     e( 86 - 86) =     15.90856  eV     1   --> A              
     e( 87 - 87) =     15.95880  eV     1   --> A              
     e( 88 - 88) =     15.96375  eV     1   --> A              
     e( 89 - 89) =     16.14239  eV     1   --> A              
     e( 90 - 90) =     16.16344  eV     1   --> A              
     e( 91 - 91) =     16.20879  eV     1   --> A              
     e( 92 - 92) =     16.23572  eV     1   --> A              
     e( 93 - 93) =     16.36218  eV     1   --> A              
     e( 94 - 94) =     16.37042  eV     1   --> A              
     e( 95 - 95) =     16.56622  eV     1   --> A              
     e( 96 - 96) =     16.58086  eV     1   --> A              
     e( 97 - 97) =     17.87167  eV     1   --> A              
     e( 98 - 98) =     17.89021  eV     1   --> A              
     e( 99 - 99) =     17.96311  eV     1   --> A              
     e(100 -100) =     18.00834  eV     1   --> A              
     e(101 -101) =     18.02902  eV     1   --> A              
     e(102 -102) =     18.05853  eV     1   --> A              
     e(103 -103) =     18.13884  eV     1   --> A              
     e(104 -104) =     18.17442  eV     1   --> A              
     e(105 -105) =     18.36093  eV     1   --> A              
     e(106 -106) =     18.37940  eV     1   --> A              
     e(107 -107) =     18.39501  eV     1   --> A              
     e(108 -108) =     18.49132  eV     1   --> A              
     e(109 -109) =     18.51598  eV     1   --> A              
     e(110 -110) =     18.52755  eV     1   --> A              
     e(111 -111) =     18.57027  eV     1   --> A              
     e(112 -112) =     18.62965  eV     1   --> A              
     e(113 -113) =     18.89376  eV     1   --> A              
     e(114 -114) =     18.93227  eV     1   --> A              
     e(115 -115) =     19.52203  eV     1   --> A              
     e(116 -116) =     19.70389  eV     1   --> A              
     e(117 -117) =     20.41146  eV     1   --> A              
     e(118 -118) =     20.47525  eV     1   --> A              
     e(119 -119) =     20.60768  eV     1   --> A              
     e(120 -120) =     20.62996  eV     1   --> A              
     e(121 -121) =     21.50477  eV     1   --> A              
     e(122 -122) =     21.80613  eV     1   --> A              
     e(123 -123) =     21.82785  eV     1   --> A              
     e(124 -124) =     22.25841  eV     1   --> A              

 **************************************************************************

 **************************************************************************

                    xk=(   0.45000,   0.27500,   0.67500  )

     Band symmetry, C_1 (1)     point group:

     e(  1 -  1) =    -69.59687  eV     1   --> A              
     e(  2 -  2) =    -69.59596  eV     1   --> A              
     e(  3 -  3) =    -69.59388  eV     1   --> A              
     e(  4 -  4) =    -69.59308  eV     1   --> A              
     e(  5 -  5) =    -69.59293  eV     1   --> A              
     e(  6 -  6) =    -69.59219  eV     1   --> A              
     e(  7 -  7) =    -69.58999  eV     1   --> A              
     e(  8 -  8) =    -69.58913  eV     1   --> A              
     e(  9 -  9) =    -47.37368  eV     1   --> A              
     e( 10 - 10) =    -47.37354  eV     1   --> A              
     e( 11 - 11) =    -47.37334  eV     1   --> A              
     e( 12 - 12) =    -46.96749  eV     1   --> A              
     e( 13 - 13) =    -35.70552  eV     1   --> A              
     e( 14 - 14) =    -35.70504  eV     1   --> A              
     e( 15 - 15) =    -35.70201  eV     1   --> A              
     e( 16 - 16) =    -35.70078  eV     1   --> A              
     e( 17 - 17) =    -35.69993  eV     1   --> A              
     e( 18 - 18) =    -35.69941  eV     1   --> A              
     e( 19 - 19) =    -35.69698  eV     1   --> A              
     e( 20 - 20) =    -35.69570  eV     1   --> A              
     e( 21 - 21) =    -35.68831  eV     1   --> A              
     e( 22 - 22) =    -35.68586  eV     1   --> A              
     e( 23 - 23) =    -35.68519  eV     1   --> A              
     e( 24 - 24) =    -35.68122  eV     1   --> A              
     e( 25 - 25) =    -35.67707  eV     1   --> A              
     e( 26 - 26) =    -35.67460  eV     1   --> A              
     e( 27 - 27) =    -35.67363  eV     1   --> A              
     e( 28 - 28) =    -35.66947  eV     1   --> A              
     e( 29 - 29) =    -35.66305  eV     1   --> A              
     e( 30 - 30) =    -35.66209  eV     1   --> A              
     e( 31 - 31) =    -35.65898  eV     1   --> A              
     e( 32 - 33) =    -35.65802  eV     2   -->   2 A              
     e( 34 - 34) =    -35.65704  eV     1   --> A              
     e( 35 - 35) =    -35.65490  eV     1   --> A              
     e( 36 - 36) =    -35.65372  eV     1   --> A              
     e( 37 - 37) =    -21.22019  eV     1   --> A              
     e( 38 - 38) =    -21.21264  eV     1   --> A              
     e( 39 - 39) =    -21.21227  eV     1   --> A              
     e( 40 - 40) =    -21.21187  eV     1   --> A              
     e( 41 - 41) =    -21.21112  eV     1   --> A              
     e( 42 - 42) =    -21.21038  eV     1   --> A              
     e( 43 - 43) =    -21.20634  eV     1   --> A              
     e( 44 - 44) =    -21.20606  eV     1   --> A              
     e( 45 - 45) =    -21.20490  eV     1   --> A              
     e( 46 - 48) =    -20.81941  eV     3   -->   3 A              
     e( 49 - 49) =      9.39396  eV     1   --> A              
     e( 50 - 50) =      9.79579  eV     1   --> A              
     e( 51 - 51) =     10.55379  eV     1   --> A              
     e( 52 - 52) =     10.65872  eV     1   --> A              
     e( 53 - 53) =     11.77260  eV     1   --> A              
     e( 54 - 54) =     11.85434  eV     1   --> A              
     e( 55 - 55) =     12.38019  eV     1   --> A              
     e( 56 - 56) =     12.69432  eV     1   --> A              
     e( 57 - 57) =     13.35082  eV     1   --> A              
     e( 58 - 58) =     13.38668  eV     1   --> A              
     e( 59 - 59) =     13.51835  eV     1   --> A              
     e( 60 - 60) =     13.60074  eV     1   --> A              
     e( 61 - 61) =     13.78191  eV     1   --> A              
     e( 62 - 62) =     13.92147  eV     1   --> A              
     e( 63 - 63) =     13.95410  eV     1   --> A              
     e( 64 - 64) =     13.99579  eV     1   --> A              
     e( 65 - 65) =     14.56674  eV     1   --> A              
     e( 66 - 66) =     14.57135  eV     1   --> A              
     e( 67 - 67) =     14.64255  eV     1   --> A              
     e( 68 - 68) =     14.72585  eV     1   --> A              
     e( 69 - 69) =     14.80727  eV     1   --> A              
     e( 70 - 70) =     14.83699  eV     1   --> A              
     e( 71 - 71) =     14.92111  eV     1   --> A              
     e( 72 - 72) =     14.94522  eV     1   --> A              
     e( 73 - 73) =     15.00070  eV     1   --> A              
     e( 74 - 74) =     15.03704  eV     1   --> A              
     e( 75 - 75) =     15.06691  eV     1   --> A              
     e( 76 - 76) =     15.13919  eV     1   --> A              
     e( 77 - 77) =     15.27916  eV     1   --> A              
     e( 78 - 78) =     15.35594  eV     1   --> A              
     e( 79 - 79) =     15.51176  eV     1   --> A              
     e( 80 - 80) =     15.58051  eV     1   --> A              
     e( 81 - 81) =     15.62257  eV     1   --> A              
     e( 82 - 82) =     15.65816  eV     1   --> A              
     e( 83 - 83) =     15.67881  eV     1   --> A              
     e( 84 - 84) =     15.72786  eV     1   --> A              
     e( 85 - 85) =     15.92153  eV     1   --> A              
     e( 86 - 86) =     15.93223  eV     1   --> A              
     e( 87 - 87) =     15.97276  eV     1   --> A              
     e( 88 - 88) =     15.97429  eV     1   --> A              
     e( 89 - 89) =     16.07649  eV     1   --> A              
     e( 90 - 90) =     16.11266  eV     1   --> A              
     e( 91 - 91) =     16.20186  eV     1   --> A              
     e( 92 - 92) =     16.24679  eV     1   --> A              
     e( 93 - 93) =     16.33206  eV     1   --> A              
     e( 94 - 94) =     16.36436  eV     1   --> A              
     e( 95 - 95) =     16.50702  eV     1   --> A              
     e( 96 - 96) =     16.52509  eV     1   --> A              
     e( 97 - 97) =     17.89352  eV     1   --> A              
     e( 98 - 98) =     17.92083  eV     1   --> A              
     e( 99 - 99) =     17.96083  eV     1   --> A              
     e(100 -100) =     18.00433  eV     1   --> A              
     e(101 -101) =     18.03339  eV     1   --> A              
     e(102 -102) =     18.06855  eV     1   --> A              
     e(103 -103) =     18.11974  eV     1   --> A              
     e(104 -104) =     18.15520  eV     1   --> A              
     e(105 -105) =     18.39316  eV     1   --> A              
     e(106 -106) =     18.40812  eV     1   --> A              
     e(107 -107) =     18.43422  eV     1   --> A              
     e(108 -108) =     18.52186  eV     1   --> A              
     e(109 -109) =     18.52365  eV     1   --> A              
     e(110 -110) =     18.55268  eV     1   --> A              
     e(111 -111) =     18.59987  eV     1   --> A              
     e(112 -112) =     18.64879  eV     1   --> A              
     e(113 -113) =     18.91756  eV     1   --> A              
     e(114 -114) =     18.95117  eV     1   --> A              
     e(115 -115) =     19.33338  eV     1   --> A              
     e(116 -116) =     19.64926  eV     1   --> A              
     e(117 -117) =     20.60501  eV     1   --> A              
     e(118 -118) =     20.73232  eV     1   --> A              
     e(119 -119) =     20.87897  eV     1   --> A              
     e(120 -120) =     20.92001  eV     1   --> A              
     e(121 -121) =     21.43538  eV     1   --> A              
     e(122 -122) =     21.68754  eV     1   --> A              
     e(123 -123) =     22.05485  eV     1   --> A              
     e(124 -124) =     22.59437  eV     1   --> A              

 **************************************************************************

 **************************************************************************

                    xk=(   0.42500,   0.28750,   0.63750  )

     Band symmetry, C_1 (1)     point group:

     e(  1 -  1) =    -69.59671  eV     1   --> A              
     e(  2 -  2) =    -69.59536  eV     1   --> A              
     e(  3 -  3) =    -69.59431  eV     1   --> A              
     e(  4 -  4) =    -69.59308  eV     1   --> A              
     e(  5 -  5) =    -69.59294  eV     1   --> A              
     e(  6 -  6) =    -69.59174  eV     1   --> A              
     e(  7 -  7) =    -69.59064  eV     1   --> A              
     e(  8 -  8) =    -69.58930  eV     1   --> A              
     e(  9 - 10) =    -47.37364  eV     2   -->   2 A              
     e( 11 - 11) =    -47.37336  eV     1   --> A              
     e( 12 - 12) =    -46.96749  eV     1   --> A              
     e( 13 - 13) =    -35.70403  eV     1   --> A              
     e( 14 - 14) =    -35.70305  eV     1   --> A              
     e( 15 - 15) =    -35.70162  eV     1   --> A              
     e( 16 - 16) =    -35.69973  eV     1   --> A              
     e( 17 - 17) =    -35.69680  eV     1   --> A              
     e( 18 - 18) =    -35.69590  eV     1   --> A              
     e( 19 - 19) =    -35.69395  eV     1   --> A              
     e( 20 - 20) =    -35.69181  eV     1   --> A              
     e( 21 - 21) =    -35.69046  eV     1   --> A              
     e( 22 - 22) =    -35.68877  eV     1   --> A              
     e( 23 - 23) =    -35.68755  eV     1   --> A              
     e( 24 - 24) =    -35.68441  eV     1   --> A              
     e( 25 - 25) =    -35.67415  eV     1   --> A              
     e( 26 - 26) =    -35.67189  eV     1   --> A              
     e( 27 - 27) =    -35.67056  eV     1   --> A              
     e( 28 - 28) =    -35.66726  eV     1   --> A              
     e( 29 - 29) =    -35.66678  eV     1   --> A              
     e( 30 - 30) =    -35.66555  eV     1   --> A              
     e( 31 - 31) =    -35.66298  eV     1   --> A              
     e( 32 - 32) =    -35.66144  eV     1   --> A              
     e( 33 - 33) =    -35.65906  eV     1   --> A              
     e( 34 - 34) =    -35.65762  eV     1   --> A              
     e( 35 - 35) =    -35.65651  eV     1   --> A              
     e( 36 - 36) =    -35.65495  eV     1   --> A              
     e( 37 - 37) =    -21.22046  eV     1   --> A              
     e( 38 - 38) =    -21.21261  eV     1   --> A              
     e( 39 - 39) =    -21.21213  eV     1   --> A              
     e( 40 - 40) =    -21.21186  eV     1   --> A              
     e( 41 - 41) =    -21.21119  eV     1   --> A              
     e( 42 - 42) =    -21.21061  eV     1   --> A              
     e( 43 - 43) =    -21.20611  eV     1   --> A              
     e( 44 - 44) =    -21.20596  eV     1   --> A              
     e( 45 - 45) =    -21.20492  eV     1   --> A              
     e( 46 - 48) =    -20.81940  eV     3   -->   3 A              
     e( 49 - 49) =      9.44166  eV     1   --> A              
     e( 50 - 50) =     10.02213  eV     1   --> A              
     e( 51 - 51) =     10.41138  eV     1   --> A              
     e( 52 - 52) =     10.63310  eV     1   --> A              
     e( 53 - 53) =     11.72233  eV     1   --> A              
     e( 54 - 54) =     11.89502  eV     1   --> A              
     e( 55 - 55) =     12.18032  eV     1   --> A              
     e( 56 - 56) =     12.63760  eV     1   --> A              
     e( 57 - 57) =     13.40873  eV     1   --> A              
     e( 58 - 58) =     13.45123  eV     1   --> A              
     e( 59 - 59) =     13.50433  eV     1   --> A              
     e( 60 - 60) =     13.61491  eV     1   --> A              
     e( 61 - 61) =     13.73798  eV     1   --> A              
     e( 62 - 62) =     13.90739  eV     1   --> A              
     e( 63 - 63) =     13.92278  eV     1   --> A              
     e( 64 - 64) =     13.95700  eV     1   --> A              
     e( 65 - 65) =     14.61966  eV     1   --> A              
     e( 66 - 66) =     14.62601  eV     1   --> A              
     e( 67 - 67) =     14.66420  eV     1   --> A              
     e( 68 - 68) =     14.76414  eV     1   --> A              
     e( 69 - 69) =     14.84940  eV     1   --> A              
     e( 70 - 70) =     14.87279  eV     1   --> A              
     e( 71 - 71) =     14.89195  eV     1   --> A              
     e( 72 - 72) =     14.92364  eV     1   --> A              
     e( 73 - 73) =     14.97208  eV     1   --> A              
     e( 74 - 74) =     15.03615  eV     1   --> A              
     e( 75 - 75) =     15.07171  eV     1   --> A              
     e( 76 - 76) =     15.15724  eV     1   --> A              
     e( 77 - 77) =     15.26710  eV     1   --> A              
     e( 78 - 78) =     15.39506  eV     1   --> A              
     e( 79 - 79) =     15.48162  eV     1   --> A              
     e( 80 - 80) =     15.51170  eV     1   --> A              
     e( 81 - 81) =     15.60308  eV     1   --> A              
     e( 82 - 82) =     15.62910  eV     1   --> A              
     e( 83 - 83) =     15.66696  eV     1   --> A              
     e( 84 - 84) =     15.69186  eV     1   --> A              
     e( 85 - 85) =     15.93903  eV     1   --> A              
     e( 86 - 86) =     15.95860  eV     1   --> A              
     e( 87 - 87) =     15.98062  eV     1   --> A              
     e( 88 - 88) =     15.99689  eV     1   --> A              
     e( 89 - 89) =     16.02412  eV     1   --> A              
     e( 90 - 90) =     16.06714  eV     1   --> A              
     e( 91 - 91) =     16.19246  eV     1   --> A              
     e( 92 - 92) =     16.25243  eV     1   --> A              
     e( 93 - 93) =     16.30623  eV     1   --> A              
     e( 94 - 94) =     16.37323  eV     1   --> A              
     e( 95 - 95) =     16.45279  eV     1   --> A              
     e( 96 - 96) =     16.46040  eV     1   --> A              
     e( 97 - 97) =     17.91444  eV     1   --> A              
     e( 98 - 98) =     17.94411  eV     1   --> A              
     e( 99 - 99) =     17.95437  eV     1   --> A              
     e(100 -100) =     18.00449  eV     1   --> A              
     e(101 -101) =     18.03397  eV     1   --> A              
     e(102 -102) =     18.07578  eV     1   --> A              
     e(103 -103) =     18.10599  eV     1   --> A              
     e(104 -104) =     18.13451  eV     1   --> A              
     e(105 -105) =     18.42168  eV     1   --> A              
     e(106 -106) =     18.42852  eV     1   --> A              
     e(107 -107) =     18.47175  eV     1   --> A              
     e(108 -108) =     18.52787  eV     1   --> A              
     e(109 -109) =     18.54379  eV     1   --> A              
     e(110 -110) =     18.57619  eV     1   --> A              
     e(111 -111) =     18.62250  eV     1   --> A              
     e(112 -112) =     18.66665  eV     1   --> A              
     e(113 -113) =     18.92863  eV     1   --> A              
     e(114 -114) =     18.99751  eV     1   --> A              
     e(115 -115) =     19.18270  eV     1   --> A              
     e(116 -116) =     19.59019  eV     1   --> A              
     e(117 -117) =     20.76644  eV     1   --> A              
     e(118 -118) =     21.00915  eV     1   --> A              
     e(119 -119) =     21.15526  eV     1   --> A              
     e(120 -120) =     21.18181  eV     1   --> A              
     e(121 -121) =     21.36550  eV     1   --> A              
     e(122 -122) =     21.57201  eV     1   --> A              
     e(123 -123) =     22.22712  eV     1   --> A              
     e(124 -124) =     22.91204  eV     1   --> A              

 **************************************************************************

 **************************************************************************

                    xk=(   0.40000,   0.30000,   0.60000  )

     point group C_s (m)    
     there are  2 classes
     the character table:

       E     s    
A'     1.00  1.00
A''    1.00 -1.00

     the symmetry operations in each class and the name of the first element:

     E        1
                                                                 
     s        2
                                                                 

     Band symmetry, C_s (m)     point group:

     e(  1 -  1) =    -69.59649  eV     1   --> A'             
     e(  2 -  3) =    -69.59474  eV     2   --> A'             
     e(  2 -  3) =    -69.59474  eV     2   --> A''            
     e(  4 -  4) =    -69.59308  eV     1   --> A'             
     e(  5 -  5) =    -69.59292  eV     1   --> A'             
     e(  6 -  7) =    -69.59128  eV     2   --> A'             
     e(  6 -  7) =    -69.59128  eV     2   --> A''            
     e(  8 -  8) =    -69.58949  eV     1   --> A'             
     e(  9 - 10) =    -47.37362  eV     2   --> A'             
     e(  9 - 10) =    -47.37362  eV     2   --> A''            
     e( 11 - 11) =    -47.37338  eV     1   --> A'             
     e( 12 - 12) =    -46.96749  eV     1   --> A'             
     e( 13 - 13) =    -35.70277  eV     1   --> A'             
     e( 14 - 15) =    -35.70114  eV     2   --> A'             
     e( 14 - 15) =    -35.70114  eV     2   --> A''            
     e( 16 - 16) =    -35.69872  eV     1   --> A'             
     e( 17 - 17) =    -35.69344  eV     1   --> A''            
     e( 18 - 18) =    -35.69319  eV     1   --> A'             
     e( 19 - 19) =    -35.69251  eV     1   --> A''            
     e( 20 - 20) =    -35.69077  eV     1   --> A'             
     e( 21 - 21) =    -35.68984  eV     1   --> A''            
     e( 22 - 22) =    -35.68957  eV     1   --> A'             
     e( 23 - 23) =    -35.68816  eV     1   --> A'             
     e( 24 - 24) =    -35.68710  eV     1   --> A''            
     e( 25 - 25) =    -35.67176  eV     1   --> A''            
     e( 26 - 26) =    -35.66996  eV     1   --> A'             
     e( 27 - 27) =    -35.66943  eV     1   --> A''            
     e( 28 - 28) =    -35.66919  eV     1   --> A'             
     e( 29 - 29) =    -35.66806  eV     1   --> A'             
     e( 30 - 30) =    -35.66672  eV     1   --> A''            
     e( 31 - 31) =    -35.66529  eV     1   --> A''            
     e( 32 - 32) =    -35.66507  eV     1   --> A'             
     e( 33 - 33) =    -35.66000  eV     1   --> A'             
     e( 34 - 35) =    -35.65819  eV     2   --> A'             
     e( 34 - 35) =    -35.65819  eV     2   --> A''            
     e( 36 - 36) =    -35.65606  eV     1   --> A'             
     e( 37 - 37) =    -21.22066  eV     1   --> A'             
     e( 38 - 38) =    -21.21260  eV     1   --> A'             
     e( 39 - 39) =    -21.21203  eV     1   --> A'             
     e( 40 - 40) =    -21.21188  eV     1   --> A''            
     e( 41 - 41) =    -21.21122  eV     1   --> A'             
     e( 42 - 42) =    -21.21070  eV     1   --> A''            
     e( 43 - 44) =    -21.20594  eV     2   --> A'             
     e( 43 - 44) =    -21.20594  eV     2   --> A''            
     e( 45 - 45) =    -21.20492  eV     1   --> A''            
     e( 46 - 48) =    -20.81939  eV     3   -->   2 A'             
     e( 46 - 48) =    -20.81939  eV     3   --> A''            
     e( 49 - 49) =      9.50640  eV     1   --> A'             
     e( 50 - 50) =     10.23176  eV     1   --> A'             
     e( 51 - 51) =     10.25288  eV     1   --> A''            
     e( 52 - 52) =     10.61617  eV     1   --> A'             
     e( 53 - 53) =     11.68601  eV     1   --> A'             
     e( 54 - 54) =     11.96709  eV     1   --> A''            
     e( 55 - 55) =     11.99337  eV     1   --> A'             
     e( 56 - 56) =     12.56224  eV     1   --> A'             
     e( 57 - 57) =     13.44872  eV     1   --> A'             
     e( 58 - 58) =     13.49927  eV     1   --> A'             
     e( 59 - 59) =     13.50376  eV     1   --> A''            
     e( 60 - 60) =     13.63421  eV     1   --> A''            
     e( 61 - 61) =     13.71634  eV     1   --> A'             
     e( 62 - 62) =     13.88470  eV     1   --> A''            
     e( 63 - 63) =     13.90527  eV     1   --> A'             
     e( 64 - 64) =     13.93004  eV     1   --> A''            
     e( 65 - 65) =     14.65965  eV     1   --> A'             
     e( 66 - 66) =     14.66629  eV     1   --> A''            
     e( 67 - 67) =     14.68481  eV     1   --> A'             
     e( 68 - 68) =     14.78896  eV     1   --> A'             
     e( 69 - 69) =     14.87424  eV     1   --> A'             
     e( 70 - 70) =     14.87489  eV     1   --> A''            
     e( 71 - 71) =     14.89771  eV     1   --> A''            
     e( 72 - 72) =     14.91965  eV     1   --> A'             
     e( 73 - 73) =     14.95868  eV     1   --> A''            
     e( 74 - 74) =     15.02765  eV     1   --> A''            
     e( 75 - 75) =     15.06407  eV     1   --> A'             
     e( 76 - 76) =     15.15309  eV     1   --> A'             
     e( 77 - 77) =     15.26718  eV     1   --> A''            
     e( 78 - 78) =     15.44879  eV     1   --> A'             
     e( 79 - 79) =     15.45034  eV     1   --> A''            
     e( 80 - 80) =     15.47065  eV     1   --> A'             
     e( 81 - 81) =     15.57133  eV     1   --> A''            
     e( 82 - 82) =     15.62988  eV     1   --> A''            
     e( 83 - 83) =     15.64421  eV     1   --> A'             
     e( 84 - 84) =     15.66134  eV     1   --> A'             
     e( 85 - 85) =     15.95251  eV     1   --> A''            
     e( 86 - 86) =     15.98299  eV     1   --> A'             
     e( 87 - 87) =     15.98769  eV     1   --> A'             
     e( 88 - 88) =     15.99011  eV     1   --> A''            
     e( 89 - 89) =     16.02708  eV     1   --> A''            
     e( 90 - 90) =     16.02827  eV     1   --> A'             
     e( 91 - 91) =     16.17936  eV     1   --> A'             
     e( 92 - 92) =     16.24266  eV     1   --> A''            
     e( 93 - 93) =     16.28821  eV     1   --> A'             
     e( 94 - 94) =     16.39028  eV     1   -->   ?
     e( 95 - 95) =     16.39053  eV     1   -->   ?
     e( 96 - 96) =     16.41828  eV     1   --> A'             
     e( 97 - 97) =     17.93035  eV     1   --> A''            
     e( 98 - 98) =     17.94880  eV     1   --> A'             
     e( 99 - 99) =     17.96213  eV     1   --> A'             
     e(100 -100) =     18.00712  eV     1   --> A''            
     e(101 -101) =     18.03354  eV     1   --> A'             
     e(102 -102) =     18.07049  eV     1   --> A''            
     e(103 -103) =     18.10336  eV     1   --> A'             
     e(104 -104) =     18.11757  eV     1   --> A''            
     e(105 -105) =     18.44409  eV     1   --> A''            
     e(106 -106) =     18.44646  eV     1   --> A'             
     e(107 -107) =     18.49709  eV     1   --> A'             
     e(108 -108) =     18.53230  eV     1   --> A''            
     e(109 -109) =     18.55804  eV     1   --> A'             
     e(110 -110) =     18.58881  eV     1   --> A''            
     e(111 -111) =     18.63816  eV     1   --> A'             
     e(112 -112) =     18.67975  eV     1   --> A''            
     e(113 -113) =     18.93537  eV     1   --> A'             
     e(114 -114) =     19.05124  eV     1   --> A'             
     e(115 -115) =     19.08513  eV     1   --> A''            
     e(116 -116) =     19.52684  eV     1   --> A'             
     e(117 -117) =     20.90607  eV     1   --> A'             
     e(118 -118) =     21.28493  eV     1   --> A''            
     e(119 -119) =     21.29140  eV     1   --> A'             
     e(120 -120) =     21.34152  eV     1   --> A''            
     e(121 -121) =     21.46022  eV     1   --> A''            
     e(122 -122) =     21.46687  eV     1   --> A'             
     e(123 -123) =     22.31223  eV     1   --> A'             
     e(124 -124) =     23.08568  eV     1   --> A''            

 **************************************************************************

 **************************************************************************

                    xk=(   0.37500,   0.31250,   0.56250  )

     point group C_1 (1)    
     there are  1 classes
     the character table:

       E    
A      1.00

     the symmetry operations in each class and the name of the first element:

     E        1
                                                                 

     Band symmetry, C_1 (1)     point group:

     e(  1 -  1) =    -69.59631  eV     1   --> A              
     e(  2 -  2) =    -69.59516  eV     1   --> A              
     e(  3 -  3) =    -69.59412  eV     1   --> A              
     e(  4 -  4) =    -69.59306  eV     1   --> A              
     e(  5 -  5) =    -69.59295  eV     1   --> A              
     e(  6 -  6) =    -69.59193  eV     1   --> A              
     e(  7 -  7) =    -69.59079  eV     1   --> A              
     e(  8 -  8) =    -69.58971  eV     1   --> A              
     e(  9 - 10) =    -47.37362  eV     2   -->   2 A              
     e( 11 - 11) =    -47.37339  eV     1   --> A              
     e( 12 - 12) =    -46.96749  eV     1   --> A              
     e( 13 - 13) =    -35.70167  eV     1   --> A              
     e( 14 - 14) =    -35.70074  eV     1   --> A              
     e( 15 - 15) =    -35.69919  eV     1   --> A              
     e( 16 - 16) =    -35.69776  eV     1   --> A              
     e( 17 - 17) =    -35.69526  eV     1   --> A              
     e( 18 - 18) =    -35.69448  eV     1   --> A              
     e( 19 - 19) =    -35.69254  eV     1   --> A              
     e( 20 - 20) =    -35.69090  eV     1   --> A              
     e( 21 - 21) =    -35.68888  eV     1   --> A              
     e( 22 - 22) =    -35.68724  eV     1   --> A              
     e( 23 - 23) =    -35.68623  eV     1   --> A              
     e( 24 - 24) =    -35.68342  eV     1   --> A              
     e( 25 - 25) =    -35.67522  eV     1   --> A              
     e( 26 - 26) =    -35.67314  eV     1   --> A              
     e( 27 - 27) =    -35.67197  eV     1   --> A              
     e( 28 - 28) =    -35.66890  eV     1   --> A              
     e( 29 - 29) =    -35.66783  eV     1   --> A              
     e( 30 - 30) =    -35.66667  eV     1   --> A              
     e( 31 - 31) =    -35.66430  eV     1   --> A              
     e( 32 - 32) =    -35.66306  eV     1   --> A              
     e( 33 - 33) =    -35.66105  eV     1   --> A              
     e( 34 - 34) =    -35.65986  eV     1   --> A              
     e( 35 - 35) =    -35.65880  eV     1   --> A              
     e( 36 - 36) =    -35.65735  eV     1   --> A              
     e( 37 - 37) =    -21.22076  eV     1   --> A              
     e( 38 - 38) =    -21.21262  eV     1   --> A              
     e( 39 - 40) =    -21.21195  eV     2   -->   2 A              
     e( 41 - 41) =    -21.21134  eV     1   --> A              
     e( 42 - 42) =    -21.21070  eV     1   --> A              
     e( 43 - 43) =    -21.20590  eV     1   --> A              
     e( 44 - 44) =    -21.20579  eV     1   --> A              
     e( 45 - 45) =    -21.20493  eV     1   --> A              
     e( 46 - 48) =    -20.81939  eV     3   -->   3 A              
     e( 49 - 49) =      9.58727  eV     1   --> A              
     e( 50 - 50) =     10.06103  eV     1   --> A              
     e( 51 - 51) =     10.43748  eV     1   --> A              
     e( 52 - 52) =     10.60783  eV     1   --> A              
     e( 53 - 53) =     11.66469  eV     1   --> A              
     e( 54 - 54) =     11.80439  eV     1   --> A              
     e( 55 - 55) =     12.09703  eV     1   --> A              
     e( 56 - 56) =     12.47811  eV     1   --> A              
     e( 57 - 57) =     13.46738  eV     1   --> A              
     e( 58 - 58) =     13.50425  eV     1   --> A              
     e( 59 - 59) =     13.53678  eV     1   --> A              
     e( 60 - 60) =     13.62883  eV     1   --> A              
     e( 61 - 61) =     13.73641  eV     1   --> A              
     e( 62 - 62) =     13.86845  eV     1   --> A              
     e( 63 - 63) =     13.88458  eV     1   --> A              
     e( 64 - 64) =     13.91744  eV     1   --> A              
     e( 65 - 65) =     14.67299  eV     1   --> A              
     e( 66 - 66) =     14.68036  eV     1   --> A              
     e( 67 - 67) =     14.71792  eV     1   --> A              
     e( 68 - 68) =     14.79733  eV     1   --> A              
     e( 69 - 69) =     14.86482  eV     1   --> A              
     e( 70 - 70) =     14.88453  eV     1   --> A              
     e( 71 - 71) =     14.90200  eV     1   --> A              
     e( 72 - 72) =     14.92917  eV     1   --> A              
     e( 73 - 73) =     14.98205  eV     1   --> A              
     e( 74 - 74) =     15.01291  eV     1   --> A              
     e( 75 - 75) =     15.04355  eV     1   --> A              
     e( 76 - 76) =     15.12408  eV     1   --> A              
     e( 77 - 77) =     15.28982  eV     1   --> A              
     e( 78 - 78) =     15.40564  eV     1   --> A              
     e( 79 - 79) =     15.46603  eV     1   --> A              
     e( 80 - 80) =     15.51112  eV     1   --> A              
     e( 81 - 81) =     15.56390  eV     1   --> A              
     e( 82 - 82) =     15.58540  eV     1   --> A              
     e( 83 - 83) =     15.64239  eV     1   --> A              
     e( 84 - 84) =     15.65196  eV     1   --> A              
     e( 85 - 85) =     15.95970  eV     1   --> A              
     e( 86 - 86) =     15.97079  eV     1   --> A              
     e( 87 - 87) =     15.98070  eV     1   --> A              
     e( 88 - 88) =     15.99628  eV     1   --> A              
     e( 89 - 89) =     16.02915  eV     1   --> A              
     e( 90 - 90) =     16.06259  eV     1   --> A              
     e( 91 - 91) =     16.16160  eV     1   --> A              
     e( 92 - 92) =     16.20869  eV     1   --> A              
     e( 93 - 93) =     16.27972  eV     1   --> A              
     e( 94 - 94) =     16.32817  eV     1   --> A              
     e( 95 - 95) =     16.40753  eV     1   --> A              
     e( 96 - 96) =     16.41237  eV     1   --> A              
     e( 97 - 97) =     17.93158  eV     1   --> A              
     e( 98 - 98) =     17.95764  eV     1   --> A              
     e( 99 - 99) =     17.97060  eV     1   --> A              
     e(100 -100) =     18.01133  eV     1   --> A              
     e(101 -101) =     18.03206  eV     1   --> A              
     e(102 -102) =     18.06303  eV     1   --> A              
     e(103 -103) =     18.09187  eV     1   --> A              
     e(104 -104) =     18.11820  eV     1   --> A              
     e(105 -105) =     18.45681  eV     1   --> A              
     e(106 -106) =     18.46328  eV     1   --> A              
     e(107 -107) =     18.50097  eV     1   --> A              
     e(108 -108) =     18.54444  eV     1   --> A              
     e(109 -109) =     18.56590  eV     1   --> A              
     e(110 -110) =     18.58696  eV     1   --> A              
     e(111 -111) =     18.64759  eV     1   --> A              
     e(112 -112) =     18.68534  eV     1   --> A              
     e(113 -113) =     18.94097  eV     1   --> A              
     e(114 -114) =     18.99099  eV     1   --> A              
     e(115 -115) =     19.15736  eV     1   --> A              
     e(116 -116) =     19.45988  eV     1   --> A              
     e(117 -117) =     21.02167  eV     1   --> A              
     e(118 -118) =     21.22281  eV     1   --> A              
     e(119 -119) =     21.34999  eV     1   --> A              
     e(120 -120) =     21.37964  eV     1   --> A              
     e(121 -121) =     21.56822  eV     1   --> A              
     e(122 -122) =     21.76604  eV     1   --> A              
     e(123 -123) =     22.27948  eV     1   --> A              
     e(124 -124) =     22.87175  eV     1   --> A              

 **************************************************************************

 **************************************************************************

                    xk=(   0.35000,   0.32500,   0.52500  )

     Band symmetry, C_1 (1)     point group:

     e(  1 -  1) =    -69.59607  eV     1   --> A              
     e(  2 -  2) =    -69.59561  eV     1   --> A              
     e(  3 -  3) =    -69.59345  eV     1   --> A              
     e(  4 -  5) =    -69.59305  eV     2   -->   2 A              
     e(  6 -  6) =    -69.59258  eV     1   --> A              
     e(  7 -  7) =    -69.59037  eV     1   --> A              
     e(  8 -  8) =    -69.58993  eV     1   --> A              
     e(  9 -  9) =    -47.37363  eV     1   --> A              
     e( 10 - 10) =    -47.37352  eV     1   --> A              
     e( 11 - 11) =    -47.37340  eV     1   --> A              
     e( 12 - 12) =    -46.96749  eV     1   --> A              
     e( 13 - 13) =    -35.70086  eV     1   --> A              
     e( 14 - 14) =    -35.70054  eV     1   --> A              
     e( 15 - 15) =    -35.69737  eV     1   --> A              
     e( 16 - 16) =    -35.69690  eV     1   --> A              
     e( 17 - 17) =    -35.69673  eV     1   --> A              
     e( 18 - 18) =    -35.69660  eV     1   --> A              
     e( 19 - 19) =    -35.69463  eV     1   --> A              
     e( 20 - 20) =    -35.69401  eV     1   --> A              
     e( 21 - 21) =    -35.68508  eV     1   --> A              
     e( 22 - 22) =    -35.68295  eV     1   --> A              
     e( 23 - 23) =    -35.68254  eV     1   --> A              
     e( 24 - 24) =    -35.68032  eV     1   --> A              
     e( 25 - 25) =    -35.67820  eV     1   --> A              
     e( 26 - 26) =    -35.67689  eV     1   --> A              
     e( 27 - 27) =    -35.67650  eV     1   --> A              
     e( 28 - 28) =    -35.67307  eV     1   --> A              
     e( 29 - 29) =    -35.66482  eV     1   --> A              
     e( 30 - 30) =    -35.66435  eV     1   --> A              
     e( 31 - 31) =    -35.66208  eV     1   --> A              
     e( 32 - 33) =    -35.66161  eV     2   -->   2 A              
     e( 34 - 34) =    -35.66099  eV     1   --> A              
     e( 35 - 35) =    -35.65928  eV     1   --> A              
     e( 36 - 36) =    -35.65873  eV     1   --> A              
     e( 37 - 37) =    -21.22077  eV     1   --> A              
     e( 38 - 38) =    -21.21265  eV     1   --> A              
     e( 39 - 39) =    -21.21191  eV     1   --> A              
     e( 40 - 40) =    -21.21177  eV     1   --> A              
     e( 41 - 41) =    -21.21151  eV     1   --> A              
     e( 42 - 42) =    -21.21067  eV     1   --> A              
     e( 43 - 43) =    -21.20592  eV     1   --> A              
     e( 44 - 44) =    -21.20575  eV     1   --> A              
     e( 45 - 45) =    -21.20494  eV     1   --> A              
     e( 46 - 48) =    -20.81941  eV     3   -->   3 A              
     e( 49 - 49) =      9.68238  eV     1   --> A              
     e( 50 - 50) =      9.87862  eV     1   --> A              
     e( 51 - 51) =     10.56665  eV     1   --> A              
     e( 52 - 52) =     10.61290  eV     1   --> A              
     e( 53 - 53) =     11.65373  eV     1   --> A              
     e( 54 - 54) =     11.69713  eV     1   --> A              
     e( 55 - 55) =     12.23452  eV     1   --> A              
     e( 56 - 56) =     12.39423  eV     1   --> A              
     e( 57 - 57) =     13.46652  eV     1   --> A              
     e( 58 - 58) =     13.50266  eV     1   --> A              
     e( 59 - 59) =     13.55833  eV     1   --> A              
     e( 60 - 60) =     13.61010  eV     1   --> A              
     e( 61 - 61) =     13.77657  eV     1   --> A              
     e( 62 - 62) =     13.85358  eV     1   --> A              
     e( 63 - 63) =     13.87087  eV     1   --> A              
     e( 64 - 64) =     13.91667  eV     1   --> A              
     e( 65 - 65) =     14.66809  eV     1   --> A              
     e( 66 - 66) =     14.67686  eV     1   --> A              
     e( 67 - 67) =     14.74641  eV     1   --> A              
     e( 68 - 68) =     14.78936  eV     1   --> A              
     e( 69 - 69) =     14.83956  eV     1   --> A              
     e( 70 - 70) =     14.87052  eV     1   --> A              
     e( 71 - 71) =     14.94262  eV     1   --> A              
     e( 72 - 72) =     14.95714  eV     1   --> A              
     e( 73 - 73) =     14.99174  eV     1   --> A              
     e( 74 - 74) =     15.01049  eV     1   --> A              
     e( 75 - 75) =     15.01842  eV     1   --> A              
     e( 76 - 76) =     15.08154  eV     1   --> A              
     e( 77 - 77) =     15.32138  eV     1   --> A              
     e( 78 - 78) =     15.37274  eV     1   --> A              
     e( 79 - 79) =     15.48421  eV     1   --> A              
     e( 80 - 80) =     15.53736  eV     1   --> A              
     e( 81 - 81) =     15.56133  eV     1   --> A              
     e( 82 - 82) =     15.57379  eV     1   --> A              
     e( 83 - 83) =     15.64320  eV     1   --> A              
     e( 84 - 84) =     15.64859  eV     1   --> A              
     e( 85 - 85) =     15.96135  eV     1   --> A              
     e( 86 - 86) =     15.96336  eV     1   --> A              
     e( 87 - 87) =     15.97516  eV     1   --> A              
     e( 88 - 88) =     15.97683  eV     1   --> A              
     e( 89 - 89) =     16.08143  eV     1   --> A              
     e( 90 - 90) =     16.09947  eV     1   --> A              
     e( 91 - 91) =     16.13938  eV     1   --> A              
     e( 92 - 92) =     16.15966  eV     1   --> A              
     e( 93 - 93) =     16.28007  eV     1   --> A              
     e( 94 - 94) =     16.28891  eV     1   --> A              
     e( 95 - 95) =     16.42098  eV     1   --> A              
     e( 96 - 96) =     16.42711  eV     1   --> A              
     e( 97 - 97) =     17.93225  eV     1   --> A              
     e( 98 - 98) =     17.94844  eV     1   --> A              
     e( 99 - 99) =     17.98732  eV     1   --> A              
     e(100 -100) =     18.01861  eV     1   --> A              
     e(101 -101) =     18.03042  eV     1   --> A              
     e(102 -102) =     18.04818  eV     1   --> A              
     e(103 -103) =     18.09030  eV     1   --> A              
     e(104 -104) =     18.12251  eV     1   --> A              
     e(105 -105) =     18.46110  eV     1   --> A              
     e(106 -106) =     18.47430  eV     1   --> A              
     e(107 -107) =     18.48985  eV     1   --> A              
     e(108 -108) =     18.55727  eV     1   --> A              
     e(109 -109) =     18.56670  eV     1   --> A              
     e(110 -110) =     18.57524  eV     1   --> A              
     e(111 -111) =     18.64924  eV     1   --> A              
     e(112 -112) =     18.68449  eV     1   --> A              
     e(113 -113) =     18.94364  eV     1   --> A              
     e(114 -114) =     18.95142  eV     1   --> A              
     e(115 -115) =     19.25948  eV     1   --> A              
     e(116 -116) =     19.39106  eV     1   --> A              
     e(117 -117) =     21.09571  eV     1   --> A              
     e(118 -118) =     21.16203  eV     1   --> A              
     e(119 -119) =     21.26416  eV     1   --> A              
     e(120 -120) =     21.29313  eV     1   --> A              
     e(121 -121) =     21.81744  eV     1   --> A              
     e(122 -122) =     22.07810  eV     1   --> A              
     e(123 -123) =     22.12207  eV     1   --> A              
     e(124 -124) =     22.53091  eV     1   --> A              

 **************************************************************************

 **************************************************************************

                    xk=(   0.32500,   0.33750,   0.48750  )

     Band symmetry, C_1 (1)     point group:

     e(  1 -  1) =    -69.59605  eV     1   --> A              
     e(  2 -  2) =    -69.59581  eV     1   --> A              
     e(  3 -  3) =    -69.59324  eV     1   --> A              
     e(  4 -  5) =    -69.59303  eV     2   -->   2 A              
     e(  6 -  6) =    -69.59280  eV     1   --> A              
     e(  7 -  7) =    -69.59015  eV     1   --> A              
     e(  8 -  8) =    -69.58994  eV     1   --> A              
     e(  9 -  9) =    -47.37364  eV     1   --> A              
     e( 10 - 10) =    -47.37352  eV     1   --> A              
     e( 11 - 11) =    -47.37340  eV     1   --> A              
     e( 12 - 12) =    -46.96749  eV     1   --> A              
     e( 13 - 13) =    -35.70130  eV     1   --> A              
     e( 14 - 14) =    -35.70106  eV     1   --> A              
     e( 15 - 15) =    -35.69775  eV     1   --> A              
     e( 16 - 16) =    -35.69746  eV     1   --> A              
     e( 17 - 17) =    -35.69708  eV     1   --> A              
     e( 18 - 18) =    -35.69678  eV     1   --> A              
     e( 19 - 19) =    -35.69568  eV     1   --> A              
     e( 20 - 20) =    -35.69543  eV     1   --> A              
     e( 21 - 21) =    -35.68382  eV     1   --> A              
     e( 22 - 22) =    -35.68163  eV     1   --> A              
     e( 23 - 23) =    -35.68144  eV     1   --> A              
     e( 24 - 24) =    -35.68127  eV     1   --> A              
     e( 25 - 25) =    -35.67807  eV     1   --> A              
     e( 26 - 26) =    -35.67787  eV     1   --> A              
     e( 27 - 27) =    -35.67713  eV     1   --> A              
     e( 28 - 28) =    -35.67433  eV     1   --> A              
     e( 29 - 29) =    -35.66338  eV     1   --> A              
     e( 30 - 30) =    -35.66312  eV     1   --> A              
     e( 31 - 31) =    -35.66205  eV     1   --> A              
     e( 32 - 32) =    -35.66180  eV     1   --> A              
     e( 33 - 33) =    -35.66020  eV     1   --> A              
     e( 34 - 34) =    -35.65990  eV     1   --> A              
     e( 35 - 35) =    -35.65903  eV     1   --> A              
     e( 36 - 36) =    -35.65877  eV     1   --> A              
     e( 37 - 37) =    -21.22070  eV     1   --> A              
     e( 38 - 38) =    -21.21265  eV     1   --> A              
     e( 39 - 39) =    -21.21189  eV     1   --> A              
     e( 40 - 40) =    -21.21171  eV     1   --> A              
     e( 41 - 41) =    -21.21158  eV     1   --> A              
     e( 42 - 42) =    -21.21064  eV     1   --> A              
     e( 43 - 43) =    -21.20598  eV     1   --> A              
     e( 44 - 44) =    -21.20578  eV     1   --> A              
     e( 45 - 45) =    -21.20493  eV     1   --> A              
     e( 46 - 48) =    -20.81941  eV     3   -->   3 A              
     e( 49 - 49) =      9.69337  eV     1   --> A              
     e( 50 - 50) =      9.79810  eV     1   --> A              
     e( 51 - 51) =     10.58837  eV     1   --> A              
     e( 52 - 52) =     10.62521  eV     1   --> A              
     e( 53 - 53) =     11.66115  eV     1   --> A              
     e( 54 - 54) =     11.69781  eV     1   --> A              
     e( 55 - 55) =     12.30852  eV     1   --> A              
     e( 56 - 56) =     12.39476  eV     1   --> A              
     e( 57 - 57) =     13.45131  eV     1   --> A              
     e( 58 - 58) =     13.48755  eV     1   --> A              
     e( 59 - 59) =     13.55797  eV     1   --> A              
     e( 60 - 60) =     13.60195  eV     1   --> A              
     e( 61 - 61) =     13.79157  eV     1   --> A              
     e( 62 - 62) =     13.85203  eV     1   --> A              
     e( 63 - 63) =     13.87939  eV     1   --> A              
     e( 64 - 64) =     13.92611  eV     1   --> A              
     e( 65 - 65) =     14.65338  eV     1   --> A              
     e( 66 - 66) =     14.66175  eV     1   --> A              
     e( 67 - 67) =     14.74271  eV     1   --> A              
     e( 68 - 68) =     14.77487  eV     1   --> A              
     e( 69 - 69) =     14.82894  eV     1   --> A              
     e( 70 - 70) =     14.86100  eV     1   --> A              
     e( 71 - 71) =     14.95994  eV     1   --> A              
     e( 72 - 72) =     14.97079  eV     1   --> A              
     e( 73 - 73) =     14.98548  eV     1   --> A              
     e( 74 - 74) =     15.00039  eV     1   --> A              
     e( 75 - 75) =     15.03115  eV     1   --> A              
     e( 76 - 76) =     15.06944  eV     1   --> A              
     e( 77 - 77) =     15.32537  eV     1   --> A              
     e( 78 - 78) =     15.36249  eV     1   --> A              
     e( 79 - 79) =     15.49963  eV     1   --> A              
     e( 80 - 80) =     15.52980  eV     1   --> A              
     e( 81 - 81) =     15.58077  eV     1   --> A              
     e( 82 - 82) =     15.58905  eV     1   --> A              
     e( 83 - 83) =     15.64963  eV     1   --> A              
     e( 84 - 84) =     15.65360  eV     1   --> A              
     e( 85 - 85) =     15.95723  eV     1   --> A              
     e( 86 - 86) =     15.95783  eV     1   --> A              
     e( 87 - 87) =     15.97125  eV     1   --> A              
     e( 88 - 88) =     15.97159  eV     1   --> A              
     e( 89 - 89) =     16.10433  eV     1   --> A              
     e( 90 - 90) =     16.11633  eV     1   --> A              
     e( 91 - 91) =     16.13477  eV     1   --> A              
     e( 92 - 92) =     16.14713  eV     1   --> A              
     e( 93 - 93) =     16.28740  eV     1   --> A              
     e( 94 - 94) =     16.28977  eV     1   --> A              
     e( 95 - 95) =     16.43721  eV     1   --> A              
     e( 96 - 96) =     16.44292  eV     1   --> A              
     e( 97 - 97) =     17.92909  eV     1   --> A              
     e( 98 - 98) =     17.94133  eV     1   --> A              
     e( 99 - 99) =     17.98881  eV     1   --> A              
     e(100 -100) =     18.02186  eV     1   --> A              
     e(101 -101) =     18.02973  eV     1   --> A              
     e(102 -102) =     18.04416  eV     1   --> A              
     e(103 -103) =     18.09502  eV     1   --> A              
     e(104 -104) =     18.12777  eV     1   --> A              
     e(105 -105) =     18.45416  eV     1   --> A              
     e(106 -106) =     18.47011  eV     1   --> A              
     e(107 -107) =     18.47796  eV     1   --> A              
     e(108 -108) =     18.55721  eV     1   --> A              
     e(109 -109) =     18.56088  eV     1   --> A              
     e(110 -110) =     18.56752  eV     1   --> A              
     e(111 -111) =     18.64275  eV     1   --> A              
     e(112 -112) =     18.67956  eV     1   --> A              
     e(113 -113) =     18.93919  eV     1   --> A              
     e(114 -114) =     18.94498  eV     1   --> A              
     e(115 -115) =     19.31115  eV     1   --> A              
     e(116 -116) =     19.38687  eV     1   --> A              
     e(117 -117) =     21.04867  eV     1   --> A              
     e(118 -118) =     21.10162  eV     1   --> A              
     e(119 -119) =     21.19165  eV     1   --> A              
     e(120 -120) =     21.20930  eV     1   --> A              
     e(121 -121) =     21.87011  eV     1   --> A              
     e(122 -122) =     22.02480  eV     1   --> A              
     e(123 -123) =     22.16453  eV     1   --> A              
     e(124 -124) =     22.39221  eV     1   --> A              

 **************************************************************************

 **************************************************************************

                    xk=(   0.30000,   0.35000,   0.45000  )

     Band symmetry, C_1 (1)     point group:

     e(  1 -  1) =    -69.59649  eV     1   --> A              
     e(  2 -  2) =    -69.59559  eV     1   --> A              
     e(  3 -  3) =    -69.59389  eV     1   --> A              
     e(  4 -  5) =    -69.59306  eV     2   -->   2 A              
     e(  6 -  6) =    -69.59217  eV     1   --> A              
     e(  7 -  7) =    -69.59037  eV     1   --> A              
     e(  8 -  8) =    -69.58951  eV     1   --> A              
     e(  9 -  9) =    -47.37364  eV     1   --> A              
     e( 10 - 10) =    -47.37354  eV     1   --> A              
     e( 11 - 11) =    -47.37338  eV     1   --> A              
     e( 12 - 12) =    -46.96749  eV     1   --> A              
     e( 13 - 13) =    -35.70299  eV     1   --> A              
     e( 14 - 14) =    -35.70246  eV     1   --> A              
     e( 15 - 15) =    -35.69996  eV     1   --> A              
     e( 16 - 16) =    -35.69875  eV     1   --> A              
     e( 17 - 17) =    -35.69755  eV     1   --> A              
     e( 18 - 18) =    -35.69696  eV     1   --> A              
     e( 19 - 19) =    -35.69477  eV     1   --> A              
     e( 20 - 20) =    -35.69348  eV     1   --> A              
     e( 21 - 21) =    -35.68800  eV     1   --> A              
     e( 22 - 22) =    -35.68586  eV     1   --> A              
     e( 23 - 23) =    -35.68509  eV     1   --> A              
     e( 24 - 24) =    -35.68171  eV     1   --> A              
     e( 25 - 25) =    -35.67675  eV     1   --> A              
     e( 26 - 26) =    -35.67446  eV     1   --> A              
     e( 27 - 27) =    -35.67353  eV     1   --> A              
     e( 28 - 28) =    -35.66991  eV     1   --> A              
     e( 29 - 29) =    -35.66525  eV     1   --> A              
     e( 30 - 30) =    -35.66435  eV     1   --> A              
     e( 31 - 31) =    -35.66159  eV     1   --> A              
     e( 32 - 32) =    -35.66058  eV     1   --> A              
     e( 33 - 33) =    -35.66000  eV     1   --> A              
     e( 34 - 34) =    -35.65909  eV     1   --> A              
     e( 35 - 35) =    -35.65730  eV     1   --> A              
     e( 36 - 36) =    -35.65621  eV     1   --> A              
     e( 37 - 37) =    -21.22055  eV     1   --> A              
     e( 38 - 38) =    -21.21263  eV     1   --> A              
     e( 39 - 39) =    -21.21200  eV     1   --> A              
     e( 40 - 40) =    -21.21183  eV     1   --> A              
     e( 41 - 41) =    -21.21135  eV     1   --> A              
     e( 42 - 42) =    -21.21061  eV     1   --> A              
     e( 43 - 43) =    -21.20608  eV     1   --> A              
     e( 44 - 44) =    -21.20589  eV     1   --> A              
     e( 45 - 45) =    -21.20492  eV     1   --> A              
     e( 46 - 48) =    -20.81940  eV     3   -->   3 A              
     e( 49 - 49) =      9.52568  eV     1   --> A              
     e( 50 - 50) =      9.91665  eV     1   --> A              
     e( 51 - 51) =     10.51464  eV     1   --> A              
     e( 52 - 52) =     10.62664  eV     1   --> A              
     e( 53 - 53) =     11.70285  eV     1   --> A              
     e( 54 - 54) =     11.79432  eV     1   --> A              
     e( 55 - 55) =     12.24231  eV     1   --> A              
     e( 56 - 56) =     12.55405  eV     1   --> A              
     e( 57 - 57) =     13.42386  eV     1   --> A              
     e( 58 - 58) =     13.45979  eV     1   --> A              
     e( 59 - 59) =     13.52958  eV     1   --> A              
     e( 60 - 60) =     13.60943  eV     1   --> A              
     e( 61 - 61) =     13.76126  eV     1   --> A              
     e( 62 - 62) =     13.88775  eV     1   --> A              
     e( 63 - 63) =     13.90478  eV     1   --> A              
     e( 64 - 64) =     13.94585  eV     1   --> A              
     e( 65 - 65) =     14.63031  eV     1   --> A              
     e( 66 - 66) =     14.63713  eV     1   --> A              
     e( 67 - 67) =     14.69401  eV     1   --> A              
     e( 68 - 68) =     14.76819  eV     1   --> A              
     e( 69 - 69) =     14.83786  eV     1   --> A              
     e( 70 - 70) =     14.86339  eV     1   --> A              
     e( 71 - 71) =     14.91570  eV     1   --> A              
     e( 72 - 72) =     14.94082  eV     1   --> A              
     e( 73 - 73) =     14.99544  eV     1   --> A              
     e( 74 - 74) =     15.01855  eV     1   --> A              
     e( 75 - 75) =     15.04740  eV     1   --> A              
     e( 76 - 76) =     15.12186  eV     1   --> A              
     e( 77 - 77) =     15.29101  eV     1   --> A              
     e( 78 - 78) =     15.37787  eV     1   --> A              
     e( 79 - 79) =     15.48580  eV     1   --> A              
     e( 80 - 80) =     15.55228  eV     1   --> A              
     e( 81 - 81) =     15.58926  eV     1   --> A              
     e( 82 - 82) =     15.60103  eV     1   --> A              
     e( 83 - 83) =     15.66218  eV     1   --> A              
     e( 84 - 84) =     15.67988  eV     1   --> A              
     e( 85 - 85) =     15.94562  eV     1   --> A              
     e( 86 - 86) =     15.95408  eV     1   --> A              
     e( 87 - 87) =     15.97478  eV     1   --> A              
     e( 88 - 88) =     15.98083  eV     1   --> A              
     e( 89 - 89) =     16.05621  eV     1   --> A              
     e( 90 - 90) =     16.08858  eV     1   --> A              
     e( 91 - 91) =     16.17277  eV     1   --> A              
     e( 92 - 92) =     16.21418  eV     1   --> A              
     e( 93 - 93) =     16.30018  eV     1   --> A              
     e( 94 - 94) =     16.33293  eV     1   --> A              
     e( 95 - 95) =     16.45078  eV     1   --> A              
     e( 96 - 96) =     16.46071  eV     1   --> A              
     e( 97 - 97) =     17.91738  eV     1   --> A              
     e( 98 - 98) =     17.94322  eV     1   --> A              
     e( 99 - 99) =     17.97020  eV     1   --> A              
     e(100 -100) =     18.01021  eV     1   --> A              
     e(101 -101) =     18.03259  eV     1   --> A              
     e(102 -102) =     18.06413  eV     1   --> A              
     e(103 -103) =     18.10104  eV     1   --> A              
     e(104 -104) =     18.13410  eV     1   --> A              
     e(105 -105) =     18.43387  eV     1   --> A              
     e(106 -106) =     18.44401  eV     1   --> A              
     e(107 -107) =     18.47322  eV     1   --> A              
     e(108 -108) =     18.53909  eV     1   --> A              
     e(109 -109) =     18.55018  eV     1   --> A              
     e(110 -110) =     18.57157  eV     1   --> A              
     e(111 -111) =     18.62963  eV     1   --> A              
     e(112 -112) =     18.67103  eV     1   --> A              
     e(113 -113) =     18.93348  eV     1   --> A              
     e(114 -114) =     18.96407  eV     1   --> A              
     e(115 -115) =     19.24223  eV     1   --> A              
     e(116 -116) =     19.51707  eV     1   --> A              
     e(117 -117) =     20.87078  eV     1   --> A              
     e(118 -118) =     21.01092  eV     1   --> A              
     e(119 -119) =     21.14239  eV     1   --> A              
     e(120 -120) =     21.18352  eV     1   --> A              
     e(121 -121) =     21.56363  eV     1   --> A              
     e(122 -122) =     21.79553  eV     1   --> A              
     e(123 -123) =     22.16466  eV     1   --> A              
     e(124 -124) =     22.69996  eV     1   --> A              

 **************************************************************************

 **************************************************************************

                    xk=(   0.27500,   0.36250,   0.41250  )

     Band symmetry, C_1 (1)     point group:

     e(  1 -  1) =    -69.59691  eV     1   --> A              
     e(  2 -  2) =    -69.59533  eV     1   --> A              
     e(  3 -  3) =    -69.59451  eV     1   --> A              
     e(  4 -  4) =    -69.59311  eV     1   --> A              
     e(  5 -  5) =    -69.59293  eV     1   --> A              
     e(  6 -  6) =    -69.59153  eV     1   --> A              
     e(  7 -  7) =    -69.59065  eV     1   --> A              
     e(  8 -  8) =    -69.58910  eV     1   --> A              
     e(  9 - 10) =    -47.37365  eV     2   -->   2 A              
     e( 11 - 11) =    -47.37334  eV     1   --> A              
     e( 12 - 12) =    -46.96749  eV     1   --> A              
     e( 13 - 13) =    -35.70518  eV     1   --> A              
     e( 14 - 14) =    -35.70401  eV     1   --> A              
     e( 15 - 15) =    -35.70288  eV     1   --> A              
     e( 16 - 16) =    -35.70066  eV     1   --> A              
     e( 17 - 17) =    -35.69701  eV     1   --> A              
     e( 18 - 18) =    -35.69601  eV     1   --> A              
     e( 19 - 19) =    -35.69417  eV     1   --> A              
     e( 20 - 20) =    -35.69167  eV     1   --> A              
     e( 21 - 21) =    -35.69155  eV     1   --> A              
     e( 22 - 22) =    -35.69024  eV     1   --> A              
     e( 23 - 23) =    -35.68882  eV     1   --> A              
     e( 24 - 24) =    -35.68566  eV     1   --> A              
     e( 25 - 25) =    -35.67292  eV     1   --> A              
     e( 26 - 26) =    -35.67062  eV     1   --> A              
     e( 27 - 27) =    -35.66917  eV     1   --> A              
     e( 28 - 28) =    -35.66700  eV     1   --> A              
     e( 29 - 29) =    -35.66580  eV     1   --> A              
     e( 30 - 30) =    -35.66556  eV     1   --> A              
     e( 31 - 31) =    -35.66300  eV     1   --> A              
     e( 32 - 32) =    -35.66121  eV     1   --> A              
     e( 33 - 33) =    -35.65810  eV     1   --> A              
     e( 34 - 34) =    -35.65636  eV     1   --> A              
     e( 35 - 35) =    -35.65556  eV     1   --> A              
     e( 36 - 36) =    -35.65376  eV     1   --> A              
     e( 37 - 37) =    -21.22032  eV     1   --> A              
     e( 38 - 38) =    -21.21260  eV     1   --> A              
     e( 39 - 39) =    -21.21226  eV     1   --> A              
     e( 40 - 40) =    -21.21188  eV     1   --> A              
     e( 41 - 41) =    -21.21106  eV     1   --> A              
     e( 42 - 42) =    -21.21055  eV     1   --> A              
     e( 43 - 43) =    -21.20620  eV     1   --> A              
     e( 44 - 44) =    -21.20605  eV     1   --> A              
     e( 45 - 45) =    -21.20491  eV     1   --> A              
     e( 46 - 48) =    -20.81941  eV     3   -->   3 A              
     e( 49 - 49) =      9.36766  eV     1   --> A              
     e( 50 - 50) =     10.04655  eV     1   --> A              
     e( 51 - 51) =     10.36344  eV     1   --> A              
     e( 52 - 52) =     10.64546  eV     1   --> A              
     e( 53 - 53) =     11.75077  eV     1   --> A              
     e( 54 - 54) =     11.96300  eV     1   --> A              
     e( 55 - 55) =     12.18781  eV     1   --> A              
     e( 56 - 56) =     12.71578  eV     1   --> A              
[...]
     e( 76 - 76) =     15.22591  eV     1   --> A              
     e( 77 - 77) =     15.23299  eV     1   --> A              
     e( 78 - 78) =     15.39693  eV     1   --> A              
     e( 79 - 79) =     15.44480  eV     1   --> A              
     e( 80 - 80) =     15.50627  eV     1   --> A              
     e( 81 - 81) =     15.65155  eV     1   --> A              
     e( 82 - 82) =     15.67487  eV     1   --> A              
     e( 83 - 83) =     15.71539  eV     1   --> A              
     e( 84 - 84) =     15.74991  eV     1   --> A              
     e( 85 - 85) =     15.90802  eV     1   --> A              
     e( 86 - 86) =     15.96067  eV     1   --> A              
     e( 87 - 87) =     15.99052  eV     1   --> A              
     e( 88 - 88) =     15.99964  eV     1   --> A              
     e( 89 - 89) =     16.02513  eV     1   --> A              
     e( 90 - 90) =     16.05451  eV     1   --> A              
     e( 91 - 91) =     16.24583  eV     1   --> A              
     e( 92 - 92) =     16.33168  eV     1   --> A              
     e( 93 - 93) =     16.33967  eV     1   --> A              
     e( 94 - 94) =     16.46717  eV     1   --> A              
     e( 95 - 95) =     16.50010  eV     1   --> A              
     e( 96 - 96) =     16.50547  eV     1   --> A              
     e( 97 - 97) =     17.89530  eV     1   --> A              
     e( 98 - 98) =     17.91470  eV     1   --> A              
     e( 99 - 99) =     17.92548  eV     1   --> A              
     e(100 -100) =     17.98763  eV     1   --> A              
     e(101 -101) =     18.03615  eV     1   --> A              
     e(102 -102) =     18.09740  eV     1   --> A              
     e(103 -103) =     18.12434  eV     1   --> A              
     e(104 -104) =     18.15131  eV     1   --> A              
     e(105 -105) =     18.37037  eV     1   --> A              
     e(106 -106) =     18.37442  eV     1   --> A              
     e(107 -107) =     18.43411  eV     1   --> A              
     e(108 -108) =     18.49950  eV     1   --> A              
     e(109 -109) =     18.50935  eV     1   --> A              
     e(110 -110) =     18.57043  eV     1   --> A              
     e(111 -111) =     18.58873  eV     1   --> A              
     e(112 -112) =     18.64036  eV     1   --> A              
     e(113 -113) =     18.90994  eV     1   --> A              
     e(114 -114) =     19.06017  eV     1   --> A              
     e(115 -115) =     19.14948  eV     1   --> A              
     e(116 -116) =     19.81903  eV     1   --> A              
     e(117 -117) =     20.41346  eV     1   --> A              
     e(118 -118) =     20.80712  eV     1   --> A              
     e(119 -119) =     20.91255  eV     1   --> A              
     e(120 -120) =     20.95525  eV     1   --> A              
     e(121 -121) =     21.01608  eV     1   --> A              
     e(122 -122) =     21.16977  eV     1   --> A              
     e(123 -123) =     22.19439  eV     1   --> A              
     e(124 -124) =     23.14613  eV     1   --> A              

 **************************************************************************

 **************************************************************************

                    xk=(   0.75000,   0.38125,   0.36875  )

     Band symmetry, C_1 (1)     point group:

     e(  1 -  1) =    -69.59730  eV     1   --> A              
     e(  2 -  2) =    -69.59518  eV     1   --> A              
     e(  3 -  3) =    -69.59498  eV     1   --> A              
     e(  4 -  4) =    -69.59315  eV     1   --> A              
     e(  5 -  5) =    -69.59289  eV     1   --> A              
     e(  6 -  6) =    -69.59102  eV     1   --> A              
     e(  7 -  7) =    -69.59081  eV     1   --> A              
     e(  8 -  8) =    -69.58872  eV     1   --> A              
     e(  9 - 10) =    -47.37367  eV     2   -->   2 A              
     e( 11 - 11) =    -47.37331  eV     1   --> A              
     e( 12 - 12) =    -46.96749  eV     1   --> A              
     e( 13 - 13) =    -35.70733  eV     1   --> A              
     e( 14 - 14) =    -35.70566  eV     1   --> A              
     e( 15 - 15) =    -35.70539  eV     1   --> A              
     e( 16 - 16) =    -35.70250  eV     1   --> A              
     e( 17 - 17) =    -35.69681  eV     1   --> A              
     e( 18 - 19) =    -35.69583  eV     2   -->   2 A              
     e( 20 - 20) =    -35.69330  eV     1   --> A              
     e( 21 - 21) =    -35.69282  eV     1   --> A              
     e( 22 - 22) =    -35.69179  eV     1   --> A              
     e( 23 - 23) =    -35.69053  eV     1   --> A              
     e( 24 - 24) =    -35.68864  eV     1   --> A              
     e( 25 - 25) =    -35.67015  eV     1   --> A              
     e( 26 - 26) =    -35.66774  eV     1   --> A              
     e( 27 - 27) =    -35.66744  eV     1   --> A              
     e( 28 - 28) =    -35.66615  eV     1   --> A              
     e( 29 - 29) =    -35.66580  eV     1   --> A              
     e( 30 - 30) =    -35.66351  eV     1   --> A              
     e( 31 - 31) =    -35.66240  eV     1   --> A              
     e( 32 - 32) =    -35.66128  eV     1   --> A              
     e( 33 - 33) =    -35.65628  eV     1   --> A              
     e( 34 - 34) =    -35.65402  eV     1   --> A              
     e( 35 - 35) =    -35.65382  eV     1   --> A              
     e( 36 - 36) =    -35.65162  eV     1   --> A              
     e( 37 - 37) =    -21.22004  eV     1   --> A              
     e( 38 - 38) =    -21.21268  eV     1   --> A              
     e( 39 - 39) =    -21.21247  eV     1   --> A              
     e( 40 - 40) =    -21.21197  eV     1   --> A              
     e( 41 - 41) =    -21.21077  eV     1   --> A              
     e( 42 - 42) =    -21.21038  eV     1   --> A              
     e( 43 - 43) =    -21.20635  eV     1   --> A              
     e( 44 - 44) =    -21.20623  eV     1   --> A              
     e( 45 - 45) =    -21.20487  eV     1   --> A              
     e( 46 - 48) =    -20.81940  eV     3   -->   3 A              
     e( 49 - 49) =      9.22414  eV     1   --> A              
     e( 50 - 50) =     10.14117  eV     1   --> A              
     e( 51 - 51) =     10.22436  eV     1   --> A              
     e( 52 - 52) =     10.67269  eV     1   --> A              
     e( 53 - 53) =     11.81237  eV     1   --> A              
     e( 54 - 54) =     12.12050  eV     1   --> A              
     e( 55 - 55) =     12.17846  eV     1   --> A              
     e( 56 - 56) =     12.86499  eV     1   --> A              
     e( 57 - 57) =     13.31789  eV     1   --> A              
     e( 58 - 58) =     13.41133  eV     1   --> A              
     e( 59 - 59) =     13.43206  eV     1   --> A              
     e( 60 - 60) =     13.59276  eV     1   --> A              
     e( 61 - 61) =     13.73829  eV     1   --> A              
     e( 62 - 62) =     13.97302  eV     1   --> A              
     e( 63 - 63) =     13.98638  eV     1   --> A              
     e( 64 - 64) =     14.01910  eV     1   --> A              
     e( 65 - 65) =     14.54459  eV     1   --> A              
     e( 66 - 66) =     14.56189  eV     1   --> A              
     e( 67 - 67) =     14.58135  eV     1   --> A              
     e( 68 - 68) =     14.72152  eV     1   --> A              
     e( 69 - 69) =     14.84117  eV     1   --> A              
     e( 70 - 70) =     14.85922  eV     1   --> A              
     e( 71 - 71) =     14.88375  eV     1   --> A              
     e( 72 - 72) =     14.91254  eV     1   --> A              
     e( 73 - 73) =     14.93669  eV     1   --> A              
     e( 74 - 74) =     15.08195  eV     1   --> A              
     e( 75 - 75) =     15.12372  eV     1   --> A              
     e( 76 - 76) =     15.22519  eV     1   --> A              
     e( 77 - 77) =     15.23407  eV     1   --> A              
     e( 78 - 78) =     15.40783  eV     1   --> A              
     e( 79 - 79) =     15.43184  eV     1   --> A              
     e( 80 - 80) =     15.50546  eV     1   --> A              
     e( 81 - 81) =     15.64975  eV     1   --> A              
     e( 82 - 82) =     15.67479  eV     1   --> A              
     e( 83 - 83) =     15.71865  eV     1   --> A              
     e( 84 - 84) =     15.74696  eV     1   --> A              
     e( 85 - 85) =     15.90837  eV     1   --> A              
     e( 86 - 86) =     15.96741  eV     1   --> A              
     e( 87 - 87) =     15.98238  eV     1   --> A              
     e( 88 - 88) =     16.00013  eV     1   --> A              
     e( 89 - 89) =     16.03212  eV     1   --> A              
     e( 90 - 90) =     16.04688  eV     1   --> A              
     e( 91 - 91) =     16.24611  eV     1   --> A              
     e( 92 - 92) =     16.33314  eV     1   --> A              
     e( 93 - 93) =     16.33910  eV     1   --> A              
     e( 94 - 94) =     16.47638  eV     1   --> A              
     e( 95 - 95) =     16.49441  eV     1   --> A              
     e( 96 - 96) =     16.50024  eV     1   --> A              
     e( 97 - 97) =     17.89774  eV     1   --> A              
     e( 98 - 98) =     17.91217  eV     1   --> A              
     e( 99 - 99) =     17.92601  eV     1   --> A              
     e(100 -100) =     17.98743  eV     1   --> A              
     e(101 -101) =     18.03620  eV     1   --> A              
     e(102 -102) =     18.09816  eV     1   --> A              
     e(103 -103) =     18.12431  eV     1   --> A              
     e(104 -104) =     18.15030  eV     1   --> A              
     e(105 -105) =     18.37131  eV     1   --> A              
     e(106 -106) =     18.37400  eV     1   --> A              
     e(107 -107) =     18.43511  eV     1   --> A              
     e(108 -108) =     18.49912  eV     1   --> A              
     e(109 -109) =     18.50959  eV     1   --> A              
     e(110 -110) =     18.57173  eV     1   --> A              
     e(111 -111) =     18.58876  eV     1   --> A              
     e(112 -112) =     18.64072  eV     1   --> A              
     e(113 -113) =     18.90996  eV     1   --> A              
     e(114 -114) =     19.07725  eV     1   --> A              
     e(115 -115) =     19.12883  eV     1   --> A              
     e(116 -116) =     19.81955  eV     1   --> A              
     e(117 -117) =     20.41468  eV     1   --> A              
     e(118 -118) =     20.84247  eV     1   --> A              
     e(119 -119) =     20.90604  eV     1   --> A              
     e(120 -120) =     20.93614  eV     1   --> A              
     e(121 -121) =     21.05174  eV     1   --> A              
     e(122 -122) =     21.12993  eV     1   --> A              
     e(123 -123) =     22.19982  eV     1   --> A              
     e(124 -124) =     23.19018  eV     1   --> A              

 **************************************************************************

 **************************************************************************

                    xk=(   0.75000,   0.37500,   0.37500  )

     point group C_s (m)    
     there are  2 classes
     the character table:

       E     s    
A'     1.00  1.00
A''    1.00 -1.00

     the symmetry operations in each class and the name of the first element:

     E        1
                                                                 
     s        2
                                                                 

     Band symmetry, C_s (m)     point group:

     e(  1 -  1) =    -69.59733  eV     1   --> A'             
     e(  2 -  3) =    -69.59507  eV     2   --> A'             
     e(  2 -  3) =    -69.59507  eV     2   --> A''            
     e(  4 -  4) =    -69.59316  eV     1   --> A'             
     e(  5 -  5) =    -69.59289  eV     1   --> A'             
     e(  6 -  7) =    -69.59090  eV     2   --> A'             
     e(  6 -  7) =    -69.59090  eV     2   --> A''            
     e(  8 -  8) =    -69.58874  eV     1   --> A'             
     e(  9 - 10) =    -47.37367  eV     2   --> A'             
     e(  9 - 10) =    -47.37367  eV     2   --> A''            
     e( 11 - 11) =    -47.37331  eV     1   --> A'             
     e( 12 - 12) =    -46.96749  eV     1   --> A'             
     e( 13 - 13) =    -35.70733  eV     1   --> A'             
     e( 14 - 15) =    -35.70549  eV     2   --> A'             
     e( 14 - 15) =    -35.70549  eV     2   --> A''            
     e( 16 - 16) =    -35.70252  eV     1   --> A'             
     e( 17 - 17) =    -35.69638  eV     1   --> A''            
     e( 18 - 18) =    -35.69612  eV     1   --> A'             
     e( 19 - 19) =    -35.69567  eV     1   --> A''            
     e( 20 - 20) =    -35.69352  eV     1   --> A'             
     e( 21 - 21) =    -35.69242  eV     1   --> A''            
     e( 22 - 22) =    -35.69215  eV     1   --> A'             
     e( 23 - 23) =    -35.69020  eV     1   --> A'             
     e( 24 - 24) =    -35.68906  eV     1   --> A''            
     e( 25 - 25) =    -35.67009  eV     1   --> A''            
     e( 26 - 26) =    -35.66799  eV     1   --> A'             
     e( 27 - 27) =    -35.66688  eV     1   --> A''            
     e( 28 - 28) =    -35.66664  eV     1   --> A'             
     e( 29 - 29) =    -35.66553  eV     1   --> A'             
     e( 30 - 30) =    -35.66383  eV     1   --> A''            
     e( 31 - 31) =    -35.66190  eV     1   --> A''            
     e( 32 - 32) =    -35.66168  eV     1   --> A'             
     e( 33 - 33) =    -35.65630  eV     1   --> A'             
     e( 34 - 35) =    -35.65390  eV     2   --> A'             
     e( 34 - 35) =    -35.65390  eV     2   --> A''            
     e( 36 - 36) =    -35.65163  eV     1   --> A'             
     e( 37 - 37) =    -21.22003  eV     1   --> A'             
     e( 38 - 38) =    -21.21267  eV     1   --> A'             
     e( 39 - 39) =    -21.21247  eV     1   --> A'             
     e( 40 - 40) =    -21.21197  eV     1   --> A''            
     e( 41 - 41) =    -21.21077  eV     1   --> A'             
     e( 42 - 42) =    -21.21039  eV     1   --> A''            
     e( 43 - 43) =    -21.20636  eV     1   --> A''            
     e( 44 - 44) =    -21.20623  eV     1   --> A'             
     e( 45 - 45) =    -21.20487  eV     1   --> A''            
     e( 46 - 48) =    -20.81940  eV     3   -->   2 A'             
     e( 46 - 48) =    -20.81940  eV     3   --> A''            
     e( 49 - 49) =      9.22381  eV     1   --> A'             
     e( 50 - 50) =     10.17348  eV     1   --> A'             
     e( 51 - 51) =     10.19257  eV     1   --> A''            
     e( 52 - 52) =     10.67255  eV     1   --> A'             
     e( 53 - 53) =     11.81210  eV     1   --> A'             
     e( 54 - 54) =     12.13685  eV     1   --> A''            
     e( 55 - 55) =     12.16140  eV     1   --> A'             
     e( 56 - 56) =     12.86544  eV     1   --> A'             
     e( 57 - 57) =     13.31820  eV     1   --> A'             
     e( 58 - 58) =     13.41638  eV     1   --> A'             
     e( 59 - 59) =     13.42711  eV     1   --> A''            
     e( 60 - 60) =     13.59257  eV     1   --> A''            
     e( 61 - 61) =     13.73774  eV     1   --> A'             
     e( 62 - 62) =     13.97304  eV     1   --> A''            
     e( 63 - 63) =     13.98635  eV     1   --> A'             
     e( 64 - 64) =     14.01884  eV     1   --> A''            
     e( 65 - 65) =     14.54493  eV     1   --> A'             
     e( 66 - 66) =     14.56273  eV     1   --> A''            
     e( 67 - 67) =     14.58093  eV     1   --> A'             
     e( 68 - 68) =     14.72175  eV     1   --> A'             
     e( 69 - 69) =     14.84185  eV     1   --> A'             
     e( 70 - 70) =     14.85875  eV     1   --> A''            
     e( 71 - 71) =     14.88408  eV     1   --> A''            
     e( 72 - 72) =     14.91404  eV     1   --> A'             
     e( 73 - 73) =     14.93451  eV     1   --> A''            
     e( 74 - 74) =     15.08217  eV     1   --> A''            
     e( 75 - 75) =     15.12404  eV     1   --> A'             
     e( 76 - 76) =     15.22484  eV     1   --> A''            
     e( 77 - 77) =     15.23454  eV     1   --> A'             
     e( 78 - 78) =     15.41937  eV     1   --> A''            
     e( 79 - 79) =     15.41967  eV     1   --> A'             
     e( 80 - 80) =     15.50513  eV     1   --> A'             
     e( 81 - 81) =     15.64913  eV     1   --> A''            
     e( 82 - 82) =     15.67475  eV     1   --> A'             
     e( 83 - 83) =     15.71993  eV     1   --> A''            
     e( 84 - 84) =     15.74583  eV     1   --> A'             
     e( 85 - 85) =     15.90848  eV     1   --> A''            
     e( 86 - 86) =     15.97400  eV     1   --> A'             
     e( 87 - 87) =     15.97539  eV     1   --> A''            
     e( 88 - 88) =     16.00029  eV     1   --> A'             
     e( 89 - 89) =     16.03877  eV     1   --> A''            
     e( 90 - 90) =     16.04005  eV     1   --> A'             
     e( 91 - 91) =     16.24616  eV     1   --> A'             
     e( 92 - 92) =     16.33361  eV     1   --> A''            
     e( 93 - 93) =     16.33889  eV     1   --> A'             
     e( 94 - 94) =     16.48520  eV     1   --> A''            
     e( 95 - 95) =     16.48603  eV     1   --> A'             
     e( 96 - 96) =     16.49926  eV     1   --> A'             
     e( 97 - 97) =     17.89883  eV     1   --> A''            
     e( 98 - 98) =     17.91110  eV     1   --> A'             
     e( 99 - 99) =     17.92619  eV     1   --> A'             
     e(100 -100) =     17.98734  eV     1   --> A''            
     e(101 -101) =     18.03621  eV     1   --> A'             
     e(102 -102) =     18.09841  eV     1   --> A''            
     e(103 -103) =     18.12435  eV     1   --> A'             
     e(104 -104) =     18.14994  eV     1   --> A''            
     e(105 -105) =     18.37172  eV     1   --> A''            
     e(106 -106) =     18.37378  eV     1   --> A'             
     e(107 -107) =     18.43544  eV     1   --> A'             
     e(108 -108) =     18.49899  eV     1   --> A''            
     e(109 -109) =     18.50968  eV     1   --> A'             
     e(110 -110) =     18.57218  eV     1   --> A''            
     e(111 -111) =     18.58874  eV     1   --> A'             
     e(112 -112) =     18.64083  eV     1   --> A''            
     e(113 -113) =     18.90995  eV     1   --> A'             
     e(114 -114) =     19.08762  eV     1   --> A'             
     e(115 -115) =     19.11736  eV     1   --> A''            
     e(116 -116) =     19.81972  eV     1   --> A'             
     e(117 -117) =     20.41507  eV     1   --> A'             
     e(118 -118) =     20.87498  eV     1   --> A''            
     e(119 -119) =     20.87897  eV     1   --> A'             
     e(120 -120) =     20.93347  eV     1   --> A''            
     e(121 -121) =     21.08726  eV     1   --> A''            
     e(122 -122) =     21.09359  eV     1   --> A'             
     e(123 -123) =     22.20162  eV     1   --> A'             
     e(124 -124) =     23.20873  eV     1   --> A''            

 **************************************************************************

     BANDS        :   2m57.57s CPU   3m33.98s WALL


   This run was terminated on:  11:34:20  22Sep2023            

=------------------------------------------------------------------------------=
   JOB DONE.
=------------------------------------------------------------------------------=
