
     Program PWSCF v.7.1 starts on 22Sep2023 at 11:26:14 

     This program is part of the open-source Quantum ESPRESSO suite
     for quantum simulation of materials; please cite
         "P. Giannozzi et al., J. Phys.:Condens. Matter 21 395502 (2009);
         "P. Giannozzi et al., J. Phys.:Condens. Matter 29 465901 (2017);
         "P. Giannozzi et al., J. Chem. Phys. 152 154105 (2020);
          URL http://www.quantum-espresso.org", 
     in publications or presentations arising from this work. More details at
     http://www.quantum-espresso.org/quote

     Parallel version (MPI & OpenMP), running on      10 processor cores
     Number of MPI processes:                10
     Threads/MPI process:                     1

     MPI processes distributed on     1 nodes
     11740 MiB available memory on the printing compute node when the environment starts

     Waiting for input...
     Reading input from standard input

     Current dimensions of program PWSCF are:
     Max number of different atomic species (ntypx) = 10
     Max number of k-points (npk) =  40000
     Max angular momentum in pseudopotentials (lmaxx) =  4

     Atomic positions and unit cell read from directory:
     ./work/pwscf.save/

     file Fe.pbe-spn-kjpaw_psl.1.0.0.UPF: wavefunction(s)  3P 3D renormalized
     file Al.pbe-n-kjpaw_psl.1.0.0.UPF: wavefunction(s)  3S 3P renormalized
     file V.pbe-spn-kjpaw_psl.1.0.0.UPF: wavefunction(s)  3P 3D renormalized
     Found identity + (  0.0000  0.5000 -0.5000) symmetry
     This is a supercell, fractional translations are disabled
     Message from routine setup:
     using ibrav=0 with symmetry is DISCOURAGED, use correct ibrav instead

     R & G space division:  proc/nbgrp/npool/nimage =      10
     Subspace diagonalization in iterative solution of the eigenvalue problem:
     a serial algorithm will be used


     Parallelization info
     --------------------
     sticks:   dense  smooth     PW     G-vecs:    dense   smooth      PW
     Min         582     259     74                33484     9897    1493
     Max         583     260     75                33487     9900    1494
     Sum        5829    2593    741               334867    98985   14939

     Using Slab Decomposition



     bravais-lattice index     =            0
     lattice parameter (alat)  =      10.6904  a.u.
     unit-cell volume          =    1221.7382 (a.u.)^3
     number of atoms/cell      =           16
     number of atomic types    =            3
     number of electrons       =       192.00
     number of Kohn-Sham states=          124
     kinetic-energy cutoff     =      71.0000  Ry
     charge density cutoff     =     641.0000  Ry
     Exchange-correlation= SLA  PW   PBX  PBC
                           (   1   4   3   4   0   0   0)

     celldm(1)=  10.690370  celldm(2)=   0.000000  celldm(3)=   0.000000
     celldm(4)=   0.000000  celldm(5)=   0.000000  celldm(6)=   0.000000

     crystal axes: (cart. coord. in units of alat)
               a(1) = (   1.000000   0.000000   0.000000 )  
               a(2) = (   0.000000   1.000000   0.000000 )  
               a(3) = (   0.000000   0.000000   1.000000 )  

     reciprocal axes: (cart. coord. in units 2 pi/alat)
               b(1) = (  1.000000  0.000000  0.000000 )  
               b(2) = (  0.000000  1.000000  0.000000 )  
               b(3) = (  0.000000  0.000000  1.000000 )  


     PseudoPot. # 1 for Fe read from file:
     ./../../pseudo/psl100_PBE/Fe.pbe-spn-kjpaw_psl.1.0.0.UPF
     MD5 check sum: bcb9ab80563fcd4521c5f14da65cef4b
     Pseudo is Projector augmented-wave + core cor, Zval = 16.0
     Generated using 'atomic' code by A. Dal Corso  v.7.2
     Shape of augmentation charge: PSQ
     Using radial grid of 1191 points,  6 beta functions with: 
                l(1) =   0
                l(2) =   0
                l(3) =   1
                l(4) =   1
                l(5) =   2
                l(6) =   2
     Q(r) pseudized with 0 coefficients 


     PseudoPot. # 2 for Al read from file:
     ./../../pseudo/psl100_PBE/Al.pbe-n-kjpaw_psl.1.0.0.UPF
     MD5 check sum: cdc280cbf52abc606c33c6b515783d65
     Pseudo is Projector augmented-wave + core cor, Zval =  3.0
     Generated using 'atomic' code by A. Dal Corso  v.7.2
     Shape of augmentation charge: PSQ
     Using radial grid of 1135 points,  6 beta functions with: 
                l(1) =   0
                l(2) =   0
                l(3) =   1
                l(4) =   1
                l(5) =   2
                l(6) =   2
     Q(r) pseudized with 0 coefficients 


     PseudoPot. # 3 for V  read from file:
     ./../../pseudo/psl100_PBE/V.pbe-spn-kjpaw_psl.1.0.0.UPF
     MD5 check sum: cba1cdff171fe0d1b5c7b7b536adf2ed
     Pseudo is Projector augmented-wave + core cor, Zval = 13.0
     Generated using 'atomic' code by A. Dal Corso  v.7.2
     Shape of augmentation charge: PSQ
     Using radial grid of 1181 points,  6 beta functions with: 
                l(1) =   0
                l(2) =   0
                l(3) =   1
                l(4) =   1
                l(5) =   2
                l(6) =   2
     Q(r) pseudized with 0 coefficients 


     atomic species   valence    mass     pseudopotential
        Fe            16.00    55.84500     Fe( 1.00)
        Al             3.00    26.98100     Al( 1.00)
        V             13.00    50.94150     V ( 1.00)

     48 Sym. Ops., with inversion, found


                                    s                        frac. trans.

      isym =  1     identity                                     

 cryst.   s( 1) = (     1          0          0      )
                  (     0          1          0      )
                  (     0          0          1      )

 cart.    s( 1) = (  1.0000000  0.0000000  0.0000000 )
                  (  0.0000000  1.0000000  0.0000000 )
                  (  0.0000000  0.0000000  1.0000000 )


      isym =  2     180 deg rotation - cart. axis [0,0,1]        

 cryst.   s( 2) = (    -1          0          0      )
                  (     0         -1          0      )
                  (     0          0          1      )

 cart.    s( 2) = ( -1.0000000  0.0000000  0.0000000 )
                  (  0.0000000 -1.0000000  0.0000000 )
                  (  0.0000000  0.0000000  1.0000000 )


      isym =  3     180 deg rotation - cart. axis [0,1,0]        

 cryst.   s( 3) = (    -1          0          0      )
                  (     0          1          0      )
                  (     0          0         -1      )

 cart.    s( 3) = ( -1.0000000  0.0000000  0.0000000 )
                  (  0.0000000  1.0000000  0.0000000 )
                  (  0.0000000  0.0000000 -1.0000000 )


      isym =  4     180 deg rotation - cart. axis [1,0,0]        

 cryst.   s( 4) = (     1          0          0      )
                  (     0         -1          0      )
                  (     0          0         -1      )

 cart.    s( 4) = (  1.0000000  0.0000000  0.0000000 )
                  (  0.0000000 -1.0000000  0.0000000 )
                  (  0.0000000  0.0000000 -1.0000000 )


      isym =  5     180 deg rotation - cart. axis [1,1,0]        

 cryst.   s( 5) = (     0          1          0      )
                  (     1          0          0      )
                  (     0          0         -1      )

 cart.    s( 5) = (  0.0000000  1.0000000  0.0000000 )
                  (  1.0000000  0.0000000  0.0000000 )
                  (  0.0000000  0.0000000 -1.0000000 )


      isym =  6     180 deg rotation - cart. axis [1,-1,0]       

 cryst.   s( 6) = (     0         -1          0      )
                  (    -1          0          0      )
                  (     0          0         -1      )

 cart.    s( 6) = (  0.0000000 -1.0000000  0.0000000 )
                  ( -1.0000000  0.0000000  0.0000000 )
                  (  0.0000000  0.0000000 -1.0000000 )


      isym =  7      90 deg rotation - cart. axis [0,0,-1]       

 cryst.   s( 7) = (     0         -1          0      )
                  (     1          0          0      )
                  (     0          0          1      )

 cart.    s( 7) = (  0.0000000  1.0000000  0.0000000 )
                  ( -1.0000000  0.0000000  0.0000000 )
                  (  0.0000000  0.0000000  1.0000000 )


      isym =  8      90 deg rotation - cart. axis [0,0,1]        

 cryst.   s( 8) = (     0          1          0      )
                  (    -1          0          0      )
                  (     0          0          1      )

 cart.    s( 8) = (  0.0000000 -1.0000000  0.0000000 )
                  (  1.0000000  0.0000000  0.0000000 )
                  (  0.0000000  0.0000000  1.0000000 )


      isym =  9     180 deg rotation - cart. axis [1,0,1]        

 cryst.   s( 9) = (     0          0          1      )
                  (     0         -1          0      )
                  (     1          0          0      )

 cart.    s( 9) = (  0.0000000  0.0000000  1.0000000 )
                  (  0.0000000 -1.0000000  0.0000000 )
                  (  1.0000000  0.0000000  0.0000000 )


      isym = 10     180 deg rotation - cart. axis [-1,0,1]       

 cryst.   s(10) = (     0          0         -1      )
                  (     0         -1          0      )
                  (    -1          0          0      )

 cart.    s(10) = (  0.0000000  0.0000000 -1.0000000 )
                  (  0.0000000 -1.0000000  0.0000000 )
                  ( -1.0000000  0.0000000  0.0000000 )


      isym = 11      90 deg rotation - cart. axis [0,1,0]        

 cryst.   s(11) = (     0          0         -1      )
                  (     0          1          0      )
                  (     1          0          0      )

 cart.    s(11) = (  0.0000000  0.0000000  1.0000000 )
                  (  0.0000000  1.0000000  0.0000000 )
                  ( -1.0000000  0.0000000  0.0000000 )


      isym = 12      90 deg rotation - cart. axis [0,-1,0]       

 cryst.   s(12) = (     0          0          1      )
                  (     0          1          0      )
                  (    -1          0          0      )

 cart.    s(12) = (  0.0000000  0.0000000 -1.0000000 )
                  (  0.0000000  1.0000000  0.0000000 )
                  (  1.0000000  0.0000000  0.0000000 )


      isym = 13     180 deg rotation - cart. axis [0,1,1]        

 cryst.   s(13) = (    -1          0          0      )
                  (     0          0          1      )
                  (     0          1          0      )

 cart.    s(13) = ( -1.0000000  0.0000000  0.0000000 )
                  (  0.0000000  0.0000000  1.0000000 )
                  (  0.0000000  1.0000000  0.0000000 )


      isym = 14     180 deg rotation - cart. axis [0,1,-1]       

 cryst.   s(14) = (    -1          0          0      )
                  (     0          0         -1      )
                  (     0         -1          0      )

 cart.    s(14) = ( -1.0000000  0.0000000  0.0000000 )
                  (  0.0000000  0.0000000 -1.0000000 )
                  (  0.0000000 -1.0000000  0.0000000 )


      isym = 15      90 deg rotation - cart. axis [-1,0,0]       

 cryst.   s(15) = (     1          0          0      )
                  (     0          0         -1      )
                  (     0          1          0      )

 cart.    s(15) = (  1.0000000  0.0000000  0.0000000 )
                  (  0.0000000  0.0000000  1.0000000 )
                  (  0.0000000 -1.0000000  0.0000000 )


      isym = 16      90 deg rotation - cart. axis [1,0,0]        

 cryst.   s(16) = (     1          0          0      )
                  (     0          0          1      )
                  (     0         -1          0      )

 cart.    s(16) = (  1.0000000  0.0000000  0.0000000 )
                  (  0.0000000  0.0000000 -1.0000000 )
                  (  0.0000000  1.0000000  0.0000000 )


      isym = 17     120 deg rotation - cart. axis [-1,-1,-1]     

 cryst.   s(17) = (     0          0          1      )
                  (     1          0          0      )
                  (     0          1          0      )

 cart.    s(17) = (  0.0000000  1.0000000  0.0000000 )
                  (  0.0000000  0.0000000  1.0000000 )
                  (  1.0000000  0.0000000  0.0000000 )


      isym = 18     120 deg rotation - cart. axis [-1,1,1]       

 cryst.   s(18) = (     0          0         -1      )
                  (    -1          0          0      )
                  (     0          1          0      )

 cart.    s(18) = (  0.0000000 -1.0000000  0.0000000 )
                  (  0.0000000  0.0000000  1.0000000 )
                  ( -1.0000000  0.0000000  0.0000000 )


      isym = 19     120 deg rotation - cart. axis [1,1,-1]       

 cryst.   s(19) = (     0          0         -1      )
                  (     1          0          0      )
                  (     0         -1          0      )

 cart.    s(19) = (  0.0000000  1.0000000  0.0000000 )
                  (  0.0000000  0.0000000 -1.0000000 )
                  ( -1.0000000  0.0000000  0.0000000 )


      isym = 20     120 deg rotation - cart. axis [1,-1,1]       

 cryst.   s(20) = (     0          0          1      )
                  (    -1          0          0      )
                  (     0         -1          0      )

 cart.    s(20) = (  0.0000000 -1.0000000  0.0000000 )
                  (  0.0000000  0.0000000 -1.0000000 )
                  (  1.0000000  0.0000000  0.0000000 )


      isym = 21     120 deg rotation - cart. axis [1,1,1]        

 cryst.   s(21) = (     0          1          0      )
                  (     0          0          1      )
                  (     1          0          0      )

 cart.    s(21) = (  0.0000000  0.0000000  1.0000000 )
                  (  1.0000000  0.0000000  0.0000000 )
                  (  0.0000000  1.0000000  0.0000000 )


      isym = 22     120 deg rotation - cart. axis [-1,1,-1]      

 cryst.   s(22) = (     0         -1          0      )
                  (     0          0         -1      )
                  (     1          0          0      )

 cart.    s(22) = (  0.0000000  0.0000000  1.0000000 )
                  ( -1.0000000  0.0000000  0.0000000 )
                  (  0.0000000 -1.0000000  0.0000000 )


      isym = 23     120 deg rotation - cart. axis [1,-1,-1]      

 cryst.   s(23) = (     0         -1          0      )
                  (     0          0          1      )
                  (    -1          0          0      )

 cart.    s(23) = (  0.0000000  0.0000000 -1.0000000 )
                  ( -1.0000000  0.0000000  0.0000000 )
                  (  0.0000000  1.0000000  0.0000000 )


      isym = 24     120 deg rotation - cart. axis [-1,-1,1]      

 cryst.   s(24) = (     0          1          0      )
                  (     0          0         -1      )
                  (    -1          0          0      )

 cart.    s(24) = (  0.0000000  0.0000000 -1.0000000 )
                  (  1.0000000  0.0000000  0.0000000 )
                  (  0.0000000 -1.0000000  0.0000000 )


      isym = 25     inversion                                    

 cryst.   s(25) = (    -1          0          0      )
                  (     0         -1          0      )
                  (     0          0         -1      )

 cart.    s(25) = ( -1.0000000  0.0000000  0.0000000 )
                  (  0.0000000 -1.0000000  0.0000000 )
                  (  0.0000000  0.0000000 -1.0000000 )


      isym = 26     inv. 180 deg rotation - cart. axis [0,0,1]   

 cryst.   s(26) = (     1          0          0      )
                  (     0          1          0      )
                  (     0          0         -1      )

 cart.    s(26) = (  1.0000000  0.0000000  0.0000000 )
                  (  0.0000000  1.0000000  0.0000000 )
                  (  0.0000000  0.0000000 -1.0000000 )


      isym = 27     inv. 180 deg rotation - cart. axis [0,1,0]   

 cryst.   s(27) = (     1          0          0      )
                  (     0         -1          0      )
                  (     0          0          1      )

 cart.    s(27) = (  1.0000000  0.0000000  0.0000000 )
                  (  0.0000000 -1.0000000  0.0000000 )
                  (  0.0000000  0.0000000  1.0000000 )


      isym = 28     inv. 180 deg rotation - cart. axis [1,0,0]   

 cryst.   s(28) = (    -1          0          0      )
                  (     0          1          0      )
                  (     0          0          1      )

 cart.    s(28) = ( -1.0000000  0.0000000  0.0000000 )
                  (  0.0000000  1.0000000  0.0000000 )
                  (  0.0000000  0.0000000  1.0000000 )


      isym = 29     inv. 180 deg rotation - cart. axis [1,1,0]   

 cryst.   s(29) = (     0         -1          0      )
                  (    -1          0          0      )
                  (     0          0          1      )

 cart.    s(29) = (  0.0000000 -1.0000000  0.0000000 )
                  ( -1.0000000  0.0000000  0.0000000 )
                  (  0.0000000  0.0000000  1.0000000 )


      isym = 30     inv. 180 deg rotation - cart. axis [1,-1,0]  

 cryst.   s(30) = (     0          1          0      )
                  (     1          0          0      )
                  (     0          0          1      )

 cart.    s(30) = (  0.0000000  1.0000000  0.0000000 )
                  (  1.0000000  0.0000000  0.0000000 )
                  (  0.0000000  0.0000000  1.0000000 )


      isym = 31     inv.  90 deg rotation - cart. axis [0,0,-1]  

 cryst.   s(31) = (     0          1          0      )
                  (    -1          0          0      )
                  (     0          0         -1      )

 cart.    s(31) = (  0.0000000 -1.0000000  0.0000000 )
                  (  1.0000000  0.0000000  0.0000000 )
                  (  0.0000000  0.0000000 -1.0000000 )


      isym = 32     inv.  90 deg rotation - cart. axis [0,0,1]   

 cryst.   s(32) = (     0         -1          0      )
                  (     1          0          0      )
                  (     0          0         -1      )

 cart.    s(32) = (  0.0000000  1.0000000  0.0000000 )
                  ( -1.0000000  0.0000000  0.0000000 )
                  (  0.0000000  0.0000000 -1.0000000 )


      isym = 33     inv. 180 deg rotation - cart. axis [1,0,1]   

 cryst.   s(33) = (     0          0         -1      )
                  (     0          1          0      )
                  (    -1          0          0      )

 cart.    s(33) = (  0.0000000  0.0000000 -1.0000000 )
                  (  0.0000000  1.0000000  0.0000000 )
                  ( -1.0000000  0.0000000  0.0000000 )


      isym = 34     inv. 180 deg rotation - cart. axis [-1,0,1]  

 cryst.   s(34) = (     0          0          1      )
                  (     0          1          0      )
                  (     1          0          0      )

 cart.    s(34) = (  0.0000000  0.0000000  1.0000000 )
                  (  0.0000000  1.0000000  0.0000000 )
                  (  1.0000000  0.0000000  0.0000000 )


      isym = 35     inv.  90 deg rotation - cart. axis [0,1,0]   

 cryst.   s(35) = (     0          0          1      )
                  (     0         -1          0      )
                  (    -1          0          0      )

 cart.    s(35) = (  0.0000000  0.0000000 -1.0000000 )
                  (  0.0000000 -1.0000000  0.0000000 )
                  (  1.0000000  0.0000000  0.0000000 )


      isym = 36     inv.  90 deg rotation - cart. axis [0,-1,0]  

 cryst.   s(36) = (     0          0         -1      )
                  (     0         -1          0      )
                  (     1          0          0      )

 cart.    s(36) = (  0.0000000  0.0000000  1.0000000 )
                  (  0.0000000 -1.0000000  0.0000000 )
                  ( -1.0000000  0.0000000  0.0000000 )


      isym = 37     inv. 180 deg rotation - cart. axis [0,1,1]   

 cryst.   s(37) = (     1          0          0      )
                  (     0          0         -1      )
                  (     0         -1          0      )

 cart.    s(37) = (  1.0000000  0.0000000  0.0000000 )
                  (  0.0000000  0.0000000 -1.0000000 )
                  (  0.0000000 -1.0000000  0.0000000 )


      isym = 38     inv. 180 deg rotation - cart. axis [0,1,-1]  

 cryst.   s(38) = (     1          0          0      )
                  (     0          0          1      )
                  (     0          1          0      )

 cart.    s(38) = (  1.0000000  0.0000000  0.0000000 )
                  (  0.0000000  0.0000000  1.0000000 )
                  (  0.0000000  1.0000000  0.0000000 )


      isym = 39     inv.  90 deg rotation - cart. axis [-1,0,0]  

 cryst.   s(39) = (    -1          0          0      )
                  (     0          0          1      )
                  (     0         -1          0      )

 cart.    s(39) = ( -1.0000000  0.0000000  0.0000000 )
                  (  0.0000000  0.0000000 -1.0000000 )
                  (  0.0000000  1.0000000  0.0000000 )


      isym = 40     inv.  90 deg rotation - cart. axis [1,0,0]   

 cryst.   s(40) = (    -1          0          0      )
                  (     0          0         -1      )
                  (     0          1          0      )

 cart.    s(40) = ( -1.0000000  0.0000000  0.0000000 )
                  (  0.0000000  0.0000000  1.0000000 )
                  (  0.0000000 -1.0000000  0.0000000 )


      isym = 41     inv. 120 deg rotation - cart. axis [-1,-1,-1]

 cryst.   s(41) = (     0          0         -1      )
                  (    -1          0          0      )
                  (     0         -1          0      )

 cart.    s(41) = (  0.0000000 -1.0000000  0.0000000 )
                  (  0.0000000  0.0000000 -1.0000000 )
                  ( -1.0000000  0.0000000  0.0000000 )


      isym = 42     inv. 120 deg rotation - cart. axis [-1,1,1]  

 cryst.   s(42) = (     0          0          1      )
                  (     1          0          0      )
                  (     0         -1          0      )

 cart.    s(42) = (  0.0000000  1.0000000  0.0000000 )
                  (  0.0000000  0.0000000 -1.0000000 )
                  (  1.0000000  0.0000000  0.0000000 )


      isym = 43     inv. 120 deg rotation - cart. axis [1,1,-1]  

 cryst.   s(43) = (     0          0          1      )
                  (    -1          0          0      )
                  (     0          1          0      )

 cart.    s(43) = (  0.0000000 -1.0000000  0.0000000 )
                  (  0.0000000  0.0000000  1.0000000 )
                  (  1.0000000  0.0000000  0.0000000 )


      isym = 44     inv. 120 deg rotation - cart. axis [1,-1,1]  

 cryst.   s(44) = (     0          0         -1      )
                  (     1          0          0      )
                  (     0          1          0      )

 cart.    s(44) = (  0.0000000  1.0000000  0.0000000 )
                  (  0.0000000  0.0000000  1.0000000 )
                  ( -1.0000000  0.0000000  0.0000000 )


      isym = 45     inv. 120 deg rotation - cart. axis [1,1,1]   

 cryst.   s(45) = (     0         -1          0      )
                  (     0          0         -1      )
                  (    -1          0          0      )

 cart.    s(45) = (  0.0000000  0.0000000 -1.0000000 )
                  ( -1.0000000  0.0000000  0.0000000 )
                  (  0.0000000 -1.0000000  0.0000000 )


      isym = 46     inv. 120 deg rotation - cart. axis [-1,1,-1] 

 cryst.   s(46) = (     0          1          0      )
                  (     0          0          1      )
                  (    -1          0          0      )

 cart.    s(46) = (  0.0000000  0.0000000 -1.0000000 )
                  (  1.0000000  0.0000000  0.0000000 )
                  (  0.0000000  1.0000000  0.0000000 )


      isym = 47     inv. 120 deg rotation - cart. axis [1,-1,-1] 

 cryst.   s(47) = (     0          1          0      )
                  (     0          0         -1      )
                  (     1          0          0      )

 cart.    s(47) = (  0.0000000  0.0000000  1.0000000 )
                  (  1.0000000  0.0000000  0.0000000 )
                  (  0.0000000 -1.0000000  0.0000000 )


      isym = 48     inv. 120 deg rotation - cart. axis [-1,-1,1] 

 cryst.   s(48) = (     0         -1          0      )
                  (     0          0          1      )
                  (     1          0          0      )

 cart.    s(48) = (  0.0000000  0.0000000  1.0000000 )
                  ( -1.0000000  0.0000000  0.0000000 )
                  (  0.0000000  1.0000000  0.0000000 )


   Cartesian axes

     site n.     atom                  positions (alat units)
         1           Fe  tau(   1) = (   0.7500000   0.2500000   0.7500000  )
         2           Fe  tau(   2) = (   0.7500000   0.7500000   0.7500000  )
         3           Fe  tau(   3) = (   0.7500000   0.7500000   0.2500000  )
         4           Fe  tau(   4) = (   0.7500000   0.2500000   0.2500000  )
         5           Fe  tau(   5) = (   0.2500000   0.2500000   0.2500000  )
         6           Fe  tau(   6) = (   0.2500000   0.2500000   0.7500000  )
         7           Fe  tau(   7) = (   0.2500000   0.7500000   0.2500000  )
         8           Fe  tau(   8) = (   0.2500000   0.7500000   0.7500000  )
         9           V   tau(   9) = (   0.5000000   0.0000000   0.0000000  )
        10           V   tau(  10) = (   0.0000000   0.0000000   0.5000000  )
        11           V   tau(  11) = (   0.5000000   0.5000000   0.5000000  )
        12           V   tau(  12) = (   0.0000000   0.5000000   0.0000000  )
        13           Al  tau(  13) = (   0.0000000   0.0000000   0.0000000  )
        14           Al  tau(  14) = (   0.5000000   0.0000000   0.5000000  )
        15           Al  tau(  15) = (   0.0000000   0.5000000   0.5000000  )
        16           Al  tau(  16) = (   0.5000000   0.5000000   0.0000000  )

   Crystallographic axes

     site n.     atom                  positions (cryst. coord.)
         1           Fe  tau(   1) = (  0.7500000  0.2500000  0.7500000  )
         2           Fe  tau(   2) = (  0.7500000  0.7500000  0.7500000  )
         3           Fe  tau(   3) = (  0.7500000  0.7500000  0.2500000  )
         4           Fe  tau(   4) = (  0.7500000  0.2500000  0.2500000  )
         5           Fe  tau(   5) = (  0.2500000  0.2500000  0.2500000  )
         6           Fe  tau(   6) = (  0.2500000  0.2500000  0.7500000  )
         7           Fe  tau(   7) = (  0.2500000  0.7500000  0.2500000  )
         8           Fe  tau(   8) = (  0.2500000  0.7500000  0.7500000  )
         9           V   tau(   9) = (  0.5000000  0.0000000  0.0000000  )
        10           V   tau(  10) = (  0.0000000  0.0000000  0.5000000  )
        11           V   tau(  11) = (  0.5000000  0.5000000  0.5000000  )
        12           V   tau(  12) = (  0.0000000  0.5000000  0.0000000  )
        13           Al  tau(  13) = (  0.0000000  0.0000000  0.0000000  )
        14           Al  tau(  14) = (  0.5000000  0.0000000  0.5000000  )
        15           Al  tau(  15) = (  0.0000000  0.5000000  0.5000000  )
        16           Al  tau(  16) = (  0.5000000  0.5000000  0.0000000  )

     number of k points=   101  Methfessel-Paxton smearing, width (Ry)=  0.0100
                       cart. coord. in units 2pi/alat
        k(    1) = (   0.5000000   0.2500000   0.7500000), wk =   0.0198020
        k(    2) = (   0.4750000   0.2625000   0.7125000), wk =   0.0198020
        k(    3) = (   0.4500000   0.2750000   0.6750000), wk =   0.0198020
        k(    4) = (   0.4250000   0.2875000   0.6375000), wk =   0.0198020
        k(    5) = (   0.4000000   0.3000000   0.6000000), wk =   0.0198020
        k(    6) = (   0.3750000   0.3125000   0.5625000), wk =   0.0198020
        k(    7) = (   0.3500000   0.3250000   0.5250000), wk =   0.0198020
        k(    8) = (   0.3250000   0.3375000   0.4875000), wk =   0.0198020
        k(    9) = (   0.3000000   0.3500000   0.4500000), wk =   0.0198020
        k(   10) = (   0.2750000   0.3625000   0.4125000), wk =   0.0198020
        k(   11) = (   0.2500000   0.3750000   0.3750000), wk =   0.0198020
        k(   12) = (   0.2250000   0.3875000   0.3375000), wk =   0.0198020
        k(   13) = (   0.2000000   0.4000000   0.3000000), wk =   0.0198020
        k(   14) = (   0.1750000   0.4125000   0.2625000), wk =   0.0198020
        k(   15) = (   0.1500000   0.4250000   0.2250000), wk =   0.0198020
        k(   16) = (   0.1250000   0.4375000   0.1875000), wk =   0.0198020
        k(   17) = (   0.1000000   0.4500000   0.1500000), wk =   0.0198020
        k(   18) = (   0.0750000   0.4625000   0.1125000), wk =   0.0198020
        k(   19) = (   0.0500000   0.4750000   0.0750000), wk =   0.0198020
        k(   20) = (   0.0250000   0.4875000   0.0375000), wk =   0.0198020
        k(   21) = (   0.0000000   0.5000000   0.0000000), wk =   0.0198020
        k(   22) = (   0.0000000   0.4750000   0.0000000), wk =   0.0198020
        k(   23) = (   0.0000000   0.4500000   0.0000000), wk =   0.0198020
        k(   24) = (   0.0000000   0.4250000   0.0000000), wk =   0.0198020
        k(   25) = (   0.0000000   0.4000000   0.0000000), wk =   0.0198020
        k(   26) = (   0.0000000   0.3750000   0.0000000), wk =   0.0198020
        k(   27) = (   0.0000000   0.3500000   0.0000000), wk =   0.0198020
        k(   28) = (   0.0000000   0.3250000   0.0000000), wk =   0.0198020
        k(   29) = (   0.0000000   0.3000000   0.0000000), wk =   0.0198020
        k(   30) = (   0.0000000   0.2750000   0.0000000), wk =   0.0198020
        k(   31) = (   0.0000000   0.2500000   0.0000000), wk =   0.0198020
        k(   32) = (   0.0000000   0.2250000   0.0000000), wk =   0.0198020
        k(   33) = (   0.0000000   0.2000000   0.0000000), wk =   0.0198020
        k(   34) = (   0.0000000   0.1750000   0.0000000), wk =   0.0198020
        k(   35) = (   0.0000000   0.1500000   0.0000000), wk =   0.0198020
        k(   36) = (   0.0000000   0.1250000   0.0000000), wk =   0.0198020
        k(   37) = (   0.0000000   0.1000000   0.0000000), wk =   0.0198020
        k(   38) = (   0.0000000   0.0750000   0.0000000), wk =   0.0198020
        k(   39) = (   0.0000000   0.0500000   0.0000000), wk =   0.0198020
        k(   40) = (   0.0000000   0.0250000   0.0000000), wk =   0.0198020
        k(   41) = (   0.0000000   0.0000000   0.0000000), wk =   0.0198020
        k(   42) = (   0.0000000   0.0250000   0.0250000), wk =   0.0198020
        k(   43) = (   0.0000000   0.0500000   0.0500000), wk =   0.0198020
        k(   44) = (   0.0000000   0.0750000   0.0750000), wk =   0.0198020
        k(   45) = (   0.0000000   0.1000000   0.1000000), wk =   0.0198020
        k(   46) = (   0.0000000   0.1250000   0.1250000), wk =   0.0198020
        k(   47) = (   0.0000000   0.1500000   0.1500000), wk =   0.0198020
        k(   48) = (   0.0000000   0.1750000   0.1750000), wk =   0.0198020
        k(   49) = (   0.0000000   0.2000000   0.2000000), wk =   0.0198020
        k(   50) = (   0.0000000   0.2250000   0.2250000), wk =   0.0198020
        k(   51) = (   0.0000000   0.2500000   0.2500000), wk =   0.0198020
        k(   52) = (   0.0000000   0.2750000   0.2750000), wk =   0.0198020
        k(   53) = (   0.0000000   0.3000000   0.3000000), wk =   0.0198020
        k(   54) = (   0.0000000   0.3250000   0.3250000), wk =   0.0198020
        k(   55) = (   0.0000000   0.3500000   0.3500000), wk =   0.0198020
        k(   56) = (   0.0000000   0.3750000   0.3750000), wk =   0.0198020
        k(   57) = (   0.0000000   0.4000000   0.4000000), wk =   0.0198020
        k(   58) = (   0.0000000   0.4250000   0.4250000), wk =   0.0198020
        k(   59) = (   0.0000000   0.4500000   0.4500000), wk =   0.0198020
        k(   60) = (   0.0000000   0.4750000   0.4750000), wk =   0.0198020
        k(   61) = (   0.0000000   0.5000000   0.5000000), wk =   0.0198020
        k(   62) = (   0.0375000   0.5000000   0.4875000), wk =   0.0198020
        k(   63) = (   0.0750000   0.5000000   0.4750000), wk =   0.0198020
        k(   64) = (   0.1125000   0.5000000   0.4625000), wk =   0.0198020
        k(   65) = (   0.1500000   0.5000000   0.4500000), wk =   0.0198020
        k(   66) = (   0.1875000   0.5000000   0.4375000), wk =   0.0198020
        k(   67) = (   0.2250000   0.5000000   0.4250000), wk =   0.0198020
        k(   68) = (   0.2625000   0.5000000   0.4125000), wk =   0.0198020
        k(   69) = (   0.3000000   0.5000000   0.4000000), wk =   0.0198020
        k(   70) = (   0.3375000   0.5000000   0.3875000), wk =   0.0198020
        k(   71) = (   0.3750000   0.5000000   0.3750000), wk =   0.0198020
        k(   72) = (   0.4125000   0.5000000   0.3625000), wk =   0.0198020
        k(   73) = (   0.4500000   0.5000000   0.3500000), wk =   0.0198020
        k(   74) = (   0.4875000   0.5000000   0.3375000), wk =   0.0198020
        k(   75) = (   0.5250000   0.5000000   0.3250000), wk =   0.0198020
        k(   76) = (   0.5625000   0.5000000   0.3125000), wk =   0.0198020
        k(   77) = (   0.6000000   0.5000000   0.3000000), wk =   0.0198020
        k(   78) = (   0.6375000   0.5000000   0.2875000), wk =   0.0198020
        k(   79) = (   0.6750000   0.5000000   0.2750000), wk =   0.0198020
        k(   80) = (   0.7125000   0.5000000   0.2625000), wk =   0.0198020
        k(   81) = (   0.7500000   0.5000000   0.2500000), wk =   0.0198020
        k(   82) = (   0.7500000   0.4937500   0.2562500), wk =   0.0198020
        k(   83) = (   0.7500000   0.4875000   0.2625000), wk =   0.0198020
        k(   84) = (   0.7500000   0.4812500   0.2687500), wk =   0.0198020
        k(   85) = (   0.7500000   0.4750000   0.2750000), wk =   0.0198020
        k(   86) = (   0.7500000   0.4687500   0.2812500), wk =   0.0198020
        k(   87) = (   0.7500000   0.4625000   0.2875000), wk =   0.0198020
        k(   88) = (   0.7500000   0.4562500   0.2937500), wk =   0.0198020
        k(   89) = (   0.7500000   0.4500000   0.3000000), wk =   0.0198020
        k(   90) = (   0.7500000   0.4437500   0.3062500), wk =   0.0198020
        k(   91) = (   0.7500000   0.4375000   0.3125000), wk =   0.0198020
        k(   92) = (   0.7500000   0.4312500   0.3187500), wk =   0.0198020
        k(   93) = (   0.7500000   0.4250000   0.3250000), wk =   0.0198020
        k(   94) = (   0.7500000   0.4187500   0.3312500), wk =   0.0198020
        k(   95) = (   0.7500000   0.4125000   0.3375000), wk =   0.0198020
        k(   96) = (   0.7500000   0.4062500   0.3437500), wk =   0.0198020
        k(   97) = (   0.7500000   0.4000000   0.3500000), wk =   0.0198020
        k(   98) = (   0.7500000   0.3937500   0.3562500), wk =   0.0198020
        k(   99) = (   0.7500000   0.3875000   0.3625000), wk =   0.0198020
        k(  100) = (   0.7500000   0.3812500   0.3687500), wk =   0.0198020
        k(  101) = (   0.7500000   0.3750000   0.3750000), wk =   0.0198020

                       cryst. coord.
        k(    1) = (   0.5000000   0.2500000   0.7500000), wk =   0.0198020
        k(    2) = (   0.4750000   0.2625000   0.7125000), wk =   0.0198020
        k(    3) = (   0.4500000   0.2750000   0.6750000), wk =   0.0198020
        k(    4) = (   0.4250000   0.2875000   0.6375000), wk =   0.0198020
        k(    5) = (   0.4000000   0.3000000   0.6000000), wk =   0.0198020
        k(    6) = (   0.3750000   0.3125000   0.5625000), wk =   0.0198020
        k(    7) = (   0.3500000   0.3250000   0.5250000), wk =   0.0198020
        k(    8) = (   0.3250000   0.3375000   0.4875000), wk =   0.0198020
        k(    9) = (   0.3000000   0.3500000   0.4500000), wk =   0.0198020
        k(   10) = (   0.2750000   0.3625000   0.4125000), wk =   0.0198020
        k(   11) = (   0.2500000   0.3750000   0.3750000), wk =   0.0198020
        k(   12) = (   0.2250000   0.3875000   0.3375000), wk =   0.0198020
        k(   13) = (   0.2000000   0.4000000   0.3000000), wk =   0.0198020
        k(   14) = (   0.1750000   0.4125000   0.2625000), wk =   0.0198020
        k(   15) = (   0.1500000   0.4250000   0.2250000), wk =   0.0198020
        k(   16) = (   0.1250000   0.4375000   0.1875000), wk =   0.0198020
        k(   17) = (   0.1000000   0.4500000   0.1500000), wk =   0.0198020
        k(   18) = (   0.0750000   0.4625000   0.1125000), wk =   0.0198020
        k(   19) = (   0.0500000   0.4750000   0.0750000), wk =   0.0198020
        k(   20) = (   0.0250000   0.4875000   0.0375000), wk =   0.0198020
        k(   21) = (   0.0000000   0.5000000   0.0000000), wk =   0.0198020
        k(   22) = (   0.0000000   0.4750000   0.0000000), wk =   0.0198020
        k(   23) = (   0.0000000   0.4500000   0.0000000), wk =   0.0198020
        k(   24) = (   0.0000000   0.4250000   0.0000000), wk =   0.0198020
        k(   25) = (   0.0000000   0.4000000   0.0000000), wk =   0.0198020
        k(   26) = (   0.0000000   0.3750000   0.0000000), wk =   0.0198020
        k(   27) = (   0.0000000   0.3500000   0.0000000), wk =   0.0198020
        k(   28) = (   0.0000000   0.3250000   0.0000000), wk =   0.0198020
        k(   29) = (   0.0000000   0.3000000   0.0000000), wk =   0.0198020
        k(   30) = (   0.0000000   0.2750000   0.0000000), wk =   0.0198020
        k(   31) = (   0.0000000   0.2500000   0.0000000), wk =   0.0198020
        k(   32) = (   0.0000000   0.2250000   0.0000000), wk =   0.0198020
        k(   33) = (   0.0000000   0.2000000   0.0000000), wk =   0.0198020
        k(   34) = (   0.0000000   0.1750000   0.0000000), wk =   0.0198020
        k(   35) = (   0.0000000   0.1500000   0.0000000), wk =   0.0198020
        k(   36) = (   0.0000000   0.1250000   0.0000000), wk =   0.0198020
        k(   37) = (   0.0000000   0.1000000   0.0000000), wk =   0.0198020
        k(   38) = (   0.0000000   0.0750000   0.0000000), wk =   0.0198020
        k(   39) = (   0.0000000   0.0500000   0.0000000), wk =   0.0198020
        k(   40) = (   0.0000000   0.0250000   0.0000000), wk =   0.0198020
        k(   41) = (   0.0000000   0.0000000   0.0000000), wk =   0.0198020
        k(   42) = (   0.0000000   0.0250000   0.0250000), wk =   0.0198020
        k(   43) = (   0.0000000   0.0500000   0.0500000), wk =   0.0198020
        k(   44) = (   0.0000000   0.0750000   0.0750000), wk =   0.0198020
        k(   45) = (   0.0000000   0.1000000   0.1000000), wk =   0.0198020
        k(   46) = (   0.0000000   0.1250000   0.1250000), wk =   0.0198020
        k(   47) = (   0.0000000   0.1500000   0.1500000), wk =   0.0198020
        k(   48) = (   0.0000000   0.1750000   0.1750000), wk =   0.0198020
        k(   49) = (   0.0000000   0.2000000   0.2000000), wk =   0.0198020
        k(   50) = (   0.0000000   0.2250000   0.2250000), wk =   0.0198020
        k(   51) = (   0.0000000   0.2500000   0.2500000), wk =   0.0198020
        k(   52) = (   0.0000000   0.2750000   0.2750000), wk =   0.0198020
        k(   53) = (   0.0000000   0.3000000   0.3000000), wk =   0.0198020
        k(   54) = (   0.0000000   0.3250000   0.3250000), wk =   0.0198020
        k(   55) = (   0.0000000   0.3500000   0.3500000), wk =   0.0198020
        k(   56) = (   0.0000000   0.3750000   0.3750000), wk =   0.0198020
        k(   57) = (   0.0000000   0.4000000   0.4000000), wk =   0.0198020
        k(   58) = (   0.0000000   0.4250000   0.4250000), wk =   0.0198020
        k(   59) = (   0.0000000   0.4500000   0.4500000), wk =   0.0198020
        k(   60) = (   0.0000000   0.4750000   0.4750000), wk =   0.0198020
        k(   61) = (   0.0000000   0.5000000   0.5000000), wk =   0.0198020
        k(   62) = (   0.0375000   0.5000000   0.4875000), wk =   0.0198020
        k(   63) = (   0.0750000   0.5000000   0.4750000), wk =   0.0198020
        k(   64) = (   0.1125000   0.5000000   0.4625000), wk =   0.0198020
        k(   65) = (   0.1500000   0.5000000   0.4500000), wk =   0.0198020
        k(   66) = (   0.1875000   0.5000000   0.4375000), wk =   0.0198020
        k(   67) = (   0.2250000   0.5000000   0.4250000), wk =   0.0198020
        k(   68) = (   0.2625000   0.5000000   0.4125000), wk =   0.0198020
        k(   69) = (   0.3000000   0.5000000   0.4000000), wk =   0.0198020
        k(   70) = (   0.3375000   0.5000000   0.3875000), wk =   0.0198020
        k(   71) = (   0.3750000   0.5000000   0.3750000), wk =   0.0198020
        k(   72) = (   0.4125000   0.5000000   0.3625000), wk =   0.0198020
        k(   73) = (   0.4500000   0.5000000   0.3500000), wk =   0.0198020
        k(   74) = (   0.4875000   0.5000000   0.3375000), wk =   0.0198020
        k(   75) = (   0.5250000   0.5000000   0.3250000), wk =   0.0198020
        k(   76) = (   0.5625000   0.5000000   0.3125000), wk =   0.0198020
        k(   77) = (   0.6000000   0.5000000   0.3000000), wk =   0.0198020
        k(   78) = (   0.6375000   0.5000000   0.2875000), wk =   0.0198020
        k(   79) = (   0.6750000   0.5000000   0.2750000), wk =   0.0198020
        k(   80) = (   0.7125000   0.5000000   0.2625000), wk =   0.0198020
        k(   81) = (   0.7500000   0.5000000   0.2500000), wk =   0.0198020
        k(   82) = (   0.7500000   0.4937500   0.2562500), wk =   0.0198020
        k(   83) = (   0.7500000   0.4875000   0.2625000), wk =   0.0198020
        k(   84) = (   0.7500000   0.4812500   0.2687500), wk =   0.0198020
        k(   85) = (   0.7500000   0.4750000   0.2750000), wk =   0.0198020
        k(   86) = (   0.7500000   0.4687500   0.2812500), wk =   0.0198020
        k(   87) = (   0.7500000   0.4625000   0.2875000), wk =   0.0198020
        k(   88) = (   0.7500000   0.4562500   0.2937500), wk =   0.0198020
        k(   89) = (   0.7500000   0.4500000   0.3000000), wk =   0.0198020
        k(   90) = (   0.7500000   0.4437500   0.3062500), wk =   0.0198020
        k(   91) = (   0.7500000   0.4375000   0.3125000), wk =   0.0198020
        k(   92) = (   0.7500000   0.4312500   0.3187500), wk =   0.0198020
        k(   93) = (   0.7500000   0.4250000   0.3250000), wk =   0.0198020
        k(   94) = (   0.7500000   0.4187500   0.3312500), wk =   0.0198020
        k(   95) = (   0.7500000   0.4125000   0.3375000), wk =   0.0198020
        k(   96) = (   0.7500000   0.4062500   0.3437500), wk =   0.0198020
        k(   97) = (   0.7500000   0.4000000   0.3500000), wk =   0.0198020
        k(   98) = (   0.7500000   0.3937500   0.3562500), wk =   0.0198020
        k(   99) = (   0.7500000   0.3875000   0.3625000), wk =   0.0198020
        k(  100) = (   0.7500000   0.3812500   0.3687500), wk =   0.0198020
        k(  101) = (   0.7500000   0.3750000   0.3750000), wk =   0.0198020

     Dense  grid:   334867 G-vectors     FFT dimensions: (  90,  90,  90)

     Smooth grid:    98985 G-vectors     FFT dimensions: (  60,  60,  60)

     Dynamical RAM for                 wfc:       2.33 MB

     Dynamical RAM for     wfc (w. buffer):     238.15 MB

     Dynamical RAM for           str. fact:       1.53 MB

     Dynamical RAM for           local pot:       0.00 MB

     Dynamical RAM for          nlocal pot:       5.42 MB

     Dynamical RAM for                qrad:       6.09 MB

     Dynamical RAM for          rho,v,vnew:       3.20 MB

     Dynamical RAM for           G-vectors:       1.99 MB

     Dynamical RAM for          h,s,v(r/c):       2.82 MB

     Dynamical RAM for          <psi|beta>:       0.54 MB

     Dynamical RAM for                 psi:       4.67 MB

     Dynamical RAM for                hpsi:       4.67 MB

     Dynamical RAM for                spsi:       4.67 MB

     Dynamical RAM for      wfcinit/wfcrot:       5.55 MB

     Dynamical RAM for           addusdens:      99.13 MB

     Estimated static dynamical RAM per process >     261.22 MB

     Estimated max dynamical RAM per process >     360.35 MB

     Estimated total dynamical RAM >       3.52 GB

     Check: negative core charge=   -0.000001

     The potential is recalculated from file :
     ./work/pwscf.save/charge-density

     Starting wfcs are  136 randomized atomic wfcs
     Checking if some PAW data can be deallocated... 
       PAW data deallocated on    6 nodes for type:  1
       PAW data deallocated on    6 nodes for type:  2
       PAW data deallocated on    8 nodes for type:  3

     Band Structure Calculation
     Davidson diagonalization with overlap

     Computing kpt #:     1  of   101
     total cpu time spent up to now is        4.4 secs

     Computing kpt #:     2  of   101
     total cpu time spent up to now is        6.9 secs

     Computing kpt #:     3  of   101
     total cpu time spent up to now is        9.7 secs

     Computing kpt #:     4  of   101
     total cpu time spent up to now is       12.4 secs

     Computing kpt #:     5  of   101
     total cpu time spent up to now is       15.3 secs

     Computing kpt #:     6  of   101
     total cpu time spent up to now is       18.2 secs

     Computing kpt #:     7  of   101
     total cpu time spent up to now is       21.0 secs

     Computing kpt #:     8  of   101
     total cpu time spent up to now is       23.8 secs

     Computing kpt #:     9  of   101
     total cpu time spent up to now is       26.7 secs

     Computing kpt #:    10  of   101
     total cpu time spent up to now is       29.6 secs

     Computing kpt #:    11  of   101
     total cpu time spent up to now is       32.5 secs

     Computing kpt #:    12  of   101
     total cpu time spent up to now is       35.4 secs

     Computing kpt #:    13  of   101
     total cpu time spent up to now is       37.9 secs

     Computing kpt #:    14  of   101
     total cpu time spent up to now is       40.3 secs

     Computing kpt #:    15  of   101
     total cpu time spent up to now is       43.0 secs

     Computing kpt #:    16  of   101
     total cpu time spent up to now is       45.5 secs

     Computing kpt #:    17  of   101
     total cpu time spent up to now is       47.8 secs

     Computing kpt #:    18  of   101
     total cpu time spent up to now is       50.3 secs

     Computing kpt #:    19  of   101
     total cpu time spent up to now is       52.8 secs

     Computing kpt #:    20  of   101
     total cpu time spent up to now is       55.1 secs

     Computing kpt #:    21  of   101
     total cpu time spent up to now is       57.4 secs

     Computing kpt #:    22  of   101
     total cpu time spent up to now is       59.6 secs

     Computing kpt #:    23  of   101
     total cpu time spent up to now is       61.9 secs

     Computing kpt #:    24  of   101
     total cpu time spent up to now is       64.0 secs

     Computing kpt #:    25  of   101
     total cpu time spent up to now is       66.1 secs

     Computing kpt #:    26  of   101
     total cpu time spent up to now is       68.3 secs

     Computing kpt #:    27  of   101
     total cpu time spent up to now is       70.4 secs

     Computing kpt #:    28  of   101
     total cpu time spent up to now is       72.6 secs

     Computing kpt #:    29  of   101
     total cpu time spent up to now is       74.7 secs

     Computing kpt #:    30  of   101
     total cpu time spent up to now is       76.8 secs

     Computing kpt #:    31  of   101
     total cpu time spent up to now is       78.9 secs

     Computing kpt #:    32  of   101
     total cpu time spent up to now is       81.4 secs

     Computing kpt #:    33  of   101
     total cpu time spent up to now is       83.9 secs

     Computing kpt #:    34  of   101
     total cpu time spent up to now is       86.4 secs

     Computing kpt #:    35  of   101
     total cpu time spent up to now is       88.9 secs

     Computing kpt #:    36  of   101
     total cpu time spent up to now is       91.5 secs

     Computing kpt #:    37  of   101
     total cpu time spent up to now is       94.0 secs

     Computing kpt #:    38  of   101
     total cpu time spent up to now is       96.5 secs

     Computing kpt #:    39  of   101
     total cpu time spent up to now is       98.5 secs

     Computing kpt #:    40  of   101
     total cpu time spent up to now is      100.9 secs

     Computing kpt #:    41  of   101
     total cpu time spent up to now is      102.8 secs

     Computing kpt #:    42  of   101
     total cpu time spent up to now is      105.2 secs

     Computing kpt #:    43  of   101
     total cpu time spent up to now is      107.8 secs

     Computing kpt #:    44  of   101
     total cpu time spent up to now is      110.5 secs

     Computing kpt #:    45  of   101
     total cpu time spent up to now is      113.2 secs

     Computing kpt #:    46  of   101
     total cpu time spent up to now is      115.4 secs

     Computing kpt #:    47  of   101
     total cpu time spent up to now is      117.7 secs

     Computing kpt #:    48  of   101
     total cpu time spent up to now is      120.1 secs

     Computing kpt #:    49  of   101
     total cpu time spent up to now is      122.4 secs

     Computing kpt #:    50  of   101
     total cpu time spent up to now is      124.6 secs

     Computing kpt #:    51  of   101
     total cpu time spent up to now is      126.8 secs

     Computing kpt #:    52  of   101
     total cpu time spent up to now is      129.0 secs

     Computing kpt #:    53  of   101
     total cpu time spent up to now is      131.3 secs

     Computing kpt #:    54  of   101
     total cpu time spent up to now is      133.5 secs

     Computing kpt #:    55  of   101
     total cpu time spent up to now is      135.6 secs

     Computing kpt #:    56  of   101
     total cpu time spent up to now is      137.9 secs

     Computing kpt #:    57  of   101
     total cpu time spent up to now is      140.1 secs

     Computing kpt #:    58  of   101
     total cpu time spent up to now is      142.2 secs

     Computing kpt #:    59  of   101
     total cpu time spent up to now is      144.5 secs

     Computing kpt #:    60  of   101
     total cpu time spent up to now is      146.7 secs

     Computing kpt #:    61  of   101
     total cpu time spent up to now is      148.9 secs

     Computing kpt #:    62  of   101
     total cpu time spent up to now is      151.0 secs

     Computing kpt #:    63  of   101
     total cpu time spent up to now is      153.2 secs

     Computing kpt #:    64  of   101
     total cpu time spent up to now is      155.4 secs

     Computing kpt #:    65  of   101
     total cpu time spent up to now is      157.7 secs

     Computing kpt #:    66  of   101
     total cpu time spent up to now is      159.9 secs

     Computing kpt #:    67  of   101
     total cpu time spent up to now is      162.2 secs

     Computing kpt #:    68  of   101
     total cpu time spent up to now is      164.4 secs

     Computing kpt #:    69  of   101
     total cpu time spent up to now is      167.0 secs

     Computing kpt #:    70  of   101
     total cpu time spent up to now is      169.8 secs

     Computing kpt #:    71  of   101
     total cpu time spent up to now is      172.5 secs

     Computing kpt #:    72  of   101
     total cpu time spent up to now is      175.2 secs

     Computing kpt #:    73  of   101
     total cpu time spent up to now is      177.9 secs

     Computing kpt #:    74  of   101
     total cpu time spent up to now is      180.3 secs

     Computing kpt #:    75  of   101
     total cpu time spent up to now is      182.7 secs

     Computing kpt #:    76  of   101
     total cpu time spent up to now is      185.1 secs

     Computing kpt #:    77  of   101
     total cpu time spent up to now is      187.8 secs

     Computing kpt #:    78  of   101
     total cpu time spent up to now is      190.4 secs

     Computing kpt #:    79  of   101
     total cpu time spent up to now is      193.1 secs

     Computing kpt #:    80  of   101
     total cpu time spent up to now is      195.4 secs

     Computing kpt #:    81  of   101
     total cpu time spent up to now is      197.7 secs

     Computing kpt #:    82  of   101
     total cpu time spent up to now is      200.1 secs

     Computing kpt #:    83  of   101
     total cpu time spent up to now is      202.5 secs

     Computing kpt #:    84  of   101
     total cpu time spent up to now is      204.8 secs

     Computing kpt #:    85  of   101
     total cpu time spent up to now is      207.1 secs

     Computing kpt #:    86  of   101
     total cpu time spent up to now is      209.7 secs

     Computing kpt #:    87  of   101
     total cpu time spent up to now is      212.4 secs

     Computing kpt #:    88  of   101
     total cpu time spent up to now is      215.0 secs

     Computing kpt #:    89  of   101
     total cpu time spent up to now is      217.8 secs

     Computing kpt #:    90  of   101
     total cpu time spent up to now is      220.5 secs

     Computing kpt #:    91  of   101
     total cpu time spent up to now is      223.3 secs

     Computing kpt #:    92  of   101
     total cpu time spent up to now is      226.0 secs

     Computing kpt #:    93  of   101
     total cpu time spent up to now is      228.9 secs

     Computing kpt #:    94  of   101
     total cpu time spent up to now is      231.7 secs

     Computing kpt #:    95  of   101
     total cpu time spent up to now is      234.5 secs

     Computing kpt #:    96  of   101
     total cpu time spent up to now is      237.4 secs

     Computing kpt #:    97  of   101
     total cpu time spent up to now is      240.3 secs

     Computing kpt #:    98  of   101
     total cpu time spent up to now is      243.1 secs

     Computing kpt #:    99  of   101
     total cpu time spent up to now is      246.0 secs

     Computing kpt #:   100  of   101
     total cpu time spent up to now is      248.8 secs

     Computing kpt #:   101  of   101
     total cpu time spent up to now is      251.5 secs

     ethr =  6.25E-07,  avg # of iterations = 19.7

     total cpu time spent up to now is      251.5 secs

     End of band structure calculation

          k = 0.5000 0.2500 0.7500 ( 12338 PWs)   bands (ev):

   -69.5972 -69.5971 -69.5930 -69.5930 -69.5930 -69.5930 -69.5889 -69.5889
   -47.3737 -47.3735 -47.3733 -46.9675 -35.7096 -35.7093 -35.7047 -35.7044
   -35.7032 -35.7032 -35.7028 -35.7028 -35.6836 -35.6835 -35.6807 -35.6806
   -35.6793 -35.6791 -35.6744 -35.6743 -35.6563 -35.6562 -35.6560 -35.6560
   -35.6520 -35.6517 -35.6515 -35.6513 -21.2195 -21.2129 -21.2127 -21.2121
   -21.2106 -21.2098 -21.2069 -21.2063 -21.2048 -20.8194 -20.8194 -20.8193
     9.3342   9.3739  10.7044  10.7423  11.9062  11.9394  12.7059  12.7353
    13.1974  13.2273  13.5987  13.6503  13.8882  13.9351  14.0607  14.1027
    14.4460  14.4484  14.5830  14.6179  14.7400  14.7565  14.9738  14.9837
    15.0205  15.0567  15.0666  15.0830  15.2984  15.3603  15.6008  15.6216
    15.6709  15.6742  15.7995  15.8107  15.8855  15.8935  15.9519  15.9595
    16.2091  16.2162  16.2229  16.2260  16.3916  16.3935  16.6217  16.6270
    17.8457  17.8588  17.9559  18.0087  18.0230  18.0565  18.1554  18.1903
    18.3249  18.3311  18.3679  18.4583  18.5048  18.5056  18.5384  18.6106
    18.8698  18.9241  19.7305  19.7687  20.1741  20.2383  20.3495  20.3614
    21.5619  21.5805  21.9177  21.9333

          k = 0.4750 0.2625 0.7125 ( 12328 PWs)   bands (ev):

   -69.5970 -69.5966 -69.5934 -69.5931 -69.5930 -69.5926 -69.5894 -69.5890
   -47.3737 -47.3735 -47.3733 -46.9675 -35.7074 -35.7071 -35.7026 -35.7025
   -35.7023 -35.7018 -35.7001 -35.6995 -35.6860 -35.6830 -35.6826 -35.6806
   -35.6775 -35.6771 -35.6767 -35.6718 -35.6594 -35.6590 -35.6571 -35.6565
   -35.6552 -35.6546 -35.6532 -35.6526 -21.2199 -21.2127 -21.2125 -21.2120
   -21.2109 -21.2101 -21.2066 -21.2062 -21.2049 -20.8194 -20.8194 -20.8193
     9.3635   9.5725  10.6525  10.6965  11.8325  11.8707  12.5638  12.7239
    13.2787  13.3108  13.5496  13.6101  13.8369  13.9253  14.0020  14.0447
    14.5085  14.5101  14.6168  14.6732  14.7684  14.7955  14.9559  14.9819
    15.0188  15.0360  15.0553  15.1081  15.2879  15.3462  15.5551  15.6158
    15.6518  15.6805  15.7285  15.7553  15.9039  15.9086  15.9588  15.9637
    16.1424  16.1634  16.2088  16.2357  16.3622  16.3704  16.5662  16.5809
    17.8717  17.8902  17.9631  18.0083  18.0290  18.0585  18.1388  18.1744
    18.3609  18.3794  18.3950  18.4913  18.5160  18.5275  18.5703  18.6297
    18.8938  18.9323  19.5220  19.7039  20.4115  20.4753  20.6077  20.6300
    21.5048  21.8061  21.8279  22.2584

          k = 0.4500 0.2750 0.6750 ( 12331 PWs)   bands (ev):

   -69.5969 -69.5960 -69.5939 -69.5931 -69.5929 -69.5922 -69.5900 -69.5891
   -47.3737 -47.3735 -47.3733 -46.9675 -35.7055 -35.7050 -35.7020 -35.7008
   -35.6999 -35.6994 -35.6970 -35.6957 -35.6883 -35.6859 -35.6852 -35.6812
   -35.6771 -35.6746 -35.6736 -35.6695 -35.6631 -35.6621 -35.6590 -35.6580
   -35.6579 -35.6570 -35.6549 -35.6537 -21.2202 -21.2126 -21.2123 -21.2119
   -21.2111 -21.2104 -21.2063 -21.2061 -21.2049 -20.8194 -20.8194 -20.8193
     9.3940   9.7958  10.5538  10.6587  11.7726  11.8543  12.3802  12.6943
    13.3508  13.3867  13.5183  13.6007  13.7819  13.9215  13.9541  13.9958
    14.5667  14.5713  14.6426  14.7259  14.8073  14.8370  14.9211  14.9452
    15.0007  15.0370  15.0669  15.1392  15.2792  15.3559  15.5118  15.5805
    15.6226  15.6582  15.6788  15.7279  15.9215  15.9322  15.9728  15.9743
    16.0765  16.1127  16.2019  16.2468  16.3321  16.3644  16.5070  16.5251
    17.8935  17.9208  17.9608  18.0043  18.0334  18.0685  18.1197  18.1552
    18.3932  18.4081  18.4342  18.5219  18.5237  18.5527  18.5999  18.6488
    18.9176  18.9512  19.3334  19.6493  20.6050  20.7323  20.8790  20.9200
    21.4354  21.6875  22.0548  22.5944

          k = 0.4250 0.2875 0.6375 ( 12337 PWs)   bands (ev):

   -69.5967 -69.5954 -69.5943 -69.5931 -69.5929 -69.5917 -69.5906 -69.5893
   -47.3736 -47.3736 -47.3734 -46.9675 -35.7040 -35.7030 -35.7016 -35.6997
   -35.6968 -35.6959 -35.6940 -35.6918 -35.6905 -35.6888 -35.6875 -35.6844
   -35.6742 -35.6719 -35.6706 -35.6673 -35.6668 -35.6656 -35.6630 -35.6614
   -35.6591 -35.6576 -35.6565 -35.6550 -21.2205 -21.2126 -21.2121 -21.2119
   -21.2112 -21.2106 -21.2061 -21.2060 -21.2049 -20.8194 -20.8194 -20.8193
     9.4417  10.0221  10.4114  10.6331  11.7223  11.8950  12.1803  12.6376
    13.4087  13.4512  13.5043  13.6149  13.7380  13.9074  13.9228  13.9570
    14.6197  14.6260  14.6642  14.7641  14.8494  14.8728  14.8920  14.9236
    14.9721  15.0362  15.0717  15.1572  15.2671  15.3951  15.4816  15.5117
    15.6031  15.6291  15.6670  15.6919  15.9390  15.9586  15.9806  15.9969
    16.0241  16.0671  16.1925  16.2524  16.3062  16.3732  16.4528  16.4604
    17.9144  17.9441  17.9544  18.0045  18.0340  18.0758  18.1060  18.1345
    18.4217  18.4285  18.4718  18.5279  18.5438  18.5762  18.6225  18.6667
    18.9286  18.9975  19.1827  19.5902  20.7664  21.0091  21.1553  21.1818
    21.3655  21.5720  22.2271  22.9120

          k = 0.4000 0.3000 0.6000 ( 12326 PWs)   bands (ev):

   -69.5965 -69.5947 -69.5947 -69.5931 -69.5929 -69.5913 -69.5913 -69.5895
   -47.3736 -47.3736 -47.3734 -46.9675 -35.7028 -35.7011 -35.7011 -35.6987
   -35.6934 -35.6932 -35.6925 -35.6908 -35.6898 -35.6896 -35.6882 -35.6871
   -35.6718 -35.6700 -35.6694 -35.6692 -35.6681 -35.6667 -35.6653 -35.6651
   -35.6600 -35.6582 -35.6582 -35.6561 -21.2207 -21.2126 -21.2120 -21.2119
   -21.2112 -21.2107 -21.2059 -21.2059 -21.2049 -20.8194 -20.8194 -20.8193
     9.5064  10.2318  10.2529  10.6162  11.6860  11.9671  11.9934  12.5622
    13.4487  13.4993  13.5038  13.6342  13.7163  13.8847  13.9053  13.9300
    14.6597  14.6663  14.6848  14.7890  14.8742  14.8749  14.8977  14.9196
    14.9587  15.0277  15.0641  15.1531  15.2672  15.4488  15.4503  15.4707
    15.5713  15.6299  15.6442  15.6613  15.9525  15.9830  15.9877  15.9901
    16.0271  16.0283  16.1794  16.2427  16.2882  16.3903  16.3905  16.4183
    17.9304  17.9488  17.9621  18.0071  18.0335  18.0705  18.1034  18.1176
    18.4441  18.4465  18.4971  18.5323  18.5580  18.5888  18.6382  18.6797
    18.9354  19.0512  19.0851  19.5268  20.9061  21.2849  21.2914  21.3415
    21.4602  21.4669  22.3122  23.0857

          k = 0.3750 0.3125 0.5625 ( 12329 PWs)   bands (ev):

   -69.5963 -69.5952 -69.5941 -69.5931 -69.5930 -69.5919 -69.5908 -69.5897
   -47.3736 -47.3735 -47.3734 -46.9675 -35.7017 -35.7007 -35.6992 -35.6978
   -35.6953 -35.6945 -35.6925 -35.6909 -35.6889 -35.6872 -35.6862 -35.6834
   -35.6752 -35.6731 -35.6720 -35.6689 -35.6678 -35.6667 -35.6643 -35.6631
   -35.6611 -35.6599 -35.6588 -35.6573 -21.2208 -21.2126 -21.2120 -21.2119
   -21.2113 -21.2107 -21.2059 -21.2058 -21.2049 -20.8194 -20.8194 -20.8193
     9.5873  10.0610  10.4375  10.6078  11.6647  11.8044  12.0970  12.4781
    13.4674  13.5042  13.5368  13.6288  13.7364  13.8685  13.8846  13.9174
    14.6730  14.6804  14.7179  14.7973  14.8648  14.8845  14.9020  14.9292
    14.9820  15.0129  15.0436  15.1241  15.2898  15.4056  15.4660  15.5111
    15.5639  15.5854  15.6424  15.6520  15.9597  15.9708  15.9807  15.9963
    16.0291  16.0626  16.1616  16.2087  16.2797  16.3282  16.4075  16.4124
    17.9316  17.9576  17.9706  18.0113  18.0321  18.0630  18.0919  18.1182
    18.4568  18.4633  18.5010  18.5444  18.5659  18.5870  18.6476  18.6853
    18.9410  18.9910  19.1574  19.4599  21.0217  21.2228  21.3500  21.3796
    21.5682  21.7660  22.2795  22.8718

          k = 0.3500 0.3250 0.5250 ( 12331 PWs)   bands (ev):

   -69.5961 -69.5956 -69.5935 -69.5930 -69.5930 -69.5926 -69.5904 -69.5899
   -47.3736 -47.3735 -47.3734 -46.9675 -35.7009 -35.7005 -35.6974 -35.6969
   -35.6967 -35.6966 -35.6946 -35.6940 -35.6851 -35.6830 -35.6825 -35.6803
   -35.6782 -35.6769 -35.6765 -35.6731 -35.6648 -35.6643 -35.6621 -35.6616
   -35.6616 -35.6610 -35.6593 -35.6587 -21.2208 -21.2126 -21.2119 -21.2118
   -21.2115 -21.2107 -21.2059 -21.2058 -21.2049 -20.8194 -20.8194 -20.8193
     9.6824   9.8786  10.5667  10.6129  11.6537  11.6971  12.2345  12.3942
    13.4665  13.5027  13.5583  13.6101  13.7766  13.8536  13.8709  13.9167
    14.6681  14.6769  14.7464  14.7894  14.8396  14.8705  14.9426  14.9571
    14.9917  15.0105  15.0184  15.0815  15.3214  15.3727  15.4842  15.5374
    15.5613  15.5738  15.6432  15.6486  15.9614  15.9634  15.9752  15.9768
    16.0814  16.0995  16.1394  16.1597  16.2801  16.2889  16.4210  16.4271
    17.9322  17.9484  17.9873  18.0186  18.0304  18.0482  18.0903  18.1225
    18.4611  18.4743  18.4898  18.5573  18.5667  18.5752  18.6492  18.6845
    18.9436  18.9514  19.2595  19.3911  21.0957  21.1620  21.2642  21.2931
    21.8174  22.0781  22.1221  22.5309

          k = 0.3250 0.3375 0.4875 ( 12327 PWs)   bands (ev):

   -69.5960 -69.5958 -69.5932 -69.5930 -69.5930 -69.5928 -69.5901 -69.5899
   -47.3736 -47.3735 -47.3734 -46.9675 -35.7013 -35.7011 -35.6978 -35.6975
   -35.6971 -35.6968 -35.6957 -35.6954 -35.6838 -35.6816 -35.6814 -35.6813
   -35.6781 -35.6779 -35.6771 -35.6743 -35.6634 -35.6631 -35.6620 -35.6618
   -35.6602 -35.6599 -35.6590 -35.6588 -21.2207 -21.2126 -21.2119 -21.2117
   -21.2116 -21.2106 -21.2060 -21.2058 -21.2049 -20.8194 -20.8193 -20.8193
     9.6934   9.7981  10.5884  10.6252  11.6611  11.6978  12.3085  12.3948
    13.4513  13.4875  13.5580  13.6019  13.7916  13.8520  13.8794  13.9261
    14.6534  14.6618  14.7427  14.7749  14.8289  14.8610  14.9599  14.9708
    14.9855  15.0004  15.0311  15.0694  15.3254  15.3625  15.4996  15.5298
    15.5808  15.5891  15.6496  15.6536  15.9572  15.9578  15.9713  15.9716
    16.1043  16.1163  16.1348  16.1471  16.2874  16.2898  16.4372  16.4429
    17.9291  17.9413  17.9888  18.0219  18.0297  18.0442  18.0950  18.1278
    18.4542  18.4701  18.4780  18.5572  18.5609  18.5675  18.6427  18.6796
    18.9392  18.9450  19.3112  19.3869  21.0487  21.1016  21.1917  21.2093
    21.8701  22.0248  22.1645  22.3922

          k = 0.3000 0.3500 0.4500 ( 12332 PWs)   bands (ev):

   -69.5965 -69.5956 -69.5939 -69.5931 -69.5930 -69.5922 -69.5904 -69.5895
   -47.3736 -47.3735 -47.3734 -46.9675 -35.7030 -35.7025 -35.7000 -35.6987
   -35.6975 -35.6970 -35.6948 -35.6935 -35.6880 -35.6859 -35.6851 -35.6817
   -35.6768 -35.6745 -35.6735 -35.6699 -35.6653 -35.6644 -35.6616 -35.6606
   -35.6600 -35.6591 -35.6573 -35.6562 -21.2205 -21.2126 -21.2120 -21.2118
   -21.2113 -21.2106 -21.2061 -21.2059 -21.2049 -20.8194 -20.8194 -20.8193
     9.5257   9.9166  10.5146  10.6266  11.7029  11.7943  12.2423  12.5540
    13.4239  13.4598  13.5296  13.6094  13.7613  13.8877  13.9048  13.9458
    14.6303  14.6371  14.6940  14.7682  14.8379  14.8634  14.9157  14.9408
    14.9954  15.0185  15.0474  15.1219  15.2910  15.3779  15.4858  15.5523
    15.5893  15.6010  15.6622  15.6799  15.9456  15.9541  15.9748  15.9808
    16.0562  16.0886  16.1728  16.2142  16.3002  16.3329  16.4508  16.4607
    17.9174  17.9432  17.9702  18.0102  18.0326  18.0641  18.1010  18.1341
    18.4339  18.4440  18.4732  18.5391  18.5502  18.5716  18.6296  18.6710
    18.9335  18.9641  19.2422  19.5171  20.8708  21.0109  21.1424  21.1835
    21.5636  21.7955  22.1647  22.7000

          k = 0.2750 0.3625 0.4125 ( 12339 PWs)   bands (ev):

   -69.5969 -69.5953 -69.5945 -69.5931 -69.5929 -69.5915 -69.5907 -69.5891
   -47.3736 -47.3736 -47.3733 -46.9675 -35.7052 -35.7040 -35.7029 -35.7007
   -35.6970 -35.6960 -35.6942 -35.6917 -35.6916 -35.6902 -35.6888 -35.6857
   -35.6729 -35.6706 -35.6692 -35.6670 -35.6658 -35.6656 -35.6630 -35.6612
   -35.6581 -35.6564 -35.6556 -35.6538 -21.2203 -21.2126 -21.2123 -21.2119
   -21.2111 -21.2105 -21.2062 -21.2060 -21.2049 -20.8194 -20.8194 -20.8193
     9.3677  10.0465  10.3634  10.6455  11.7508  11.9630  12.1878  12.7158
    13.3805  13.4323  13.4841  13.6101  13.7345  13.9280  13.9435  13.9763
    14.5960  14.6037  14.6364  14.7505  14.8465  14.8708  14.8856  14.9171
    14.9616  15.0505  15.0887  15.1812  15.2527  15.3966  15.4836  15.4976
    15.6186  15.6562  15.6739  15.7106  15.9291  15.9577  15.9850  16.0049
    16.0126  16.0623  16.2098  16.2793  16.3174  16.4039  16.4685  16.4761
    17.9079  17.9367  17.9441  17.9996  18.0348  18.0833  18.1130  18.1400
    18.4048  18.4109  18.4600  18.5185  18.5330  18.5740  18.6113  18.6583
    18.9224  19.0153  19.1720  19.6629  20.6469  20.9398  21.0859  21.1159
    21.2317  21.4355  22.2209  22.9922

          k = 0.2500 0.3750 0.3750 ( 12334 PWs)   bands (ev):

   -69.5973 -69.5951 -69.5951 -69.5932 -69.5929 -69.5909 -69.5909 -69.5887
   -47.3737 -47.3736 -47.3733 -46.9675 -35.7073 -35.7055 -35.7055 -35.7025
   -35.6964 -35.6961 -35.6957 -35.6935 -35.6924 -35.6921 -35.6902 -35.6891
   -35.6701 -35.6680 -35.6669 -35.6666 -35.6655 -35.6638 -35.6619 -35.6617
   -35.6563 -35.6539 -35.6539 -35.6516 -21.2200 -21.2127 -21.2125 -21.2120
   -21.2108 -21.2104 -21.2064 -21.2062 -21.2049 -20.8194 -20.8194 -20.8193
     9.2238  10.1735  10.1926  10.6725  11.8121  12.1369  12.1614  12.8654
    13.3182  13.4164  13.4271  13.5926  13.7377  13.9730  13.9864  14.0188
    14.5449  14.5627  14.5809  14.7218  14.8419  14.8587  14.8841  14.9140
    14.9345  15.0822  15.1240  15.2248  15.2345  15.4194  15.4197  15.5051
    15.6491  15.6748  15.7199  15.7458  15.9085  15.9740  15.9754  16.0003
    16.0388  16.0401  16.2462  16.3336  16.3389  16.4852  16.4860  16.4993
    17.8988  17.9111  17.9262  17.9873  18.0362  18.0984  18.1243  18.1499
    18.3717  18.3738  18.4354  18.4990  18.5097  18.5722  18.5887  18.6408
    18.9100  19.0876  19.1174  19.8197  20.4151  20.8750  20.8790  20.9335
    21.0873  21.0936  22.2016  23.2087

          k = 0.2250 0.3875 0.3375 ( 12329 PWs)   bands (ev):

   -69.5977 -69.5956 -69.5948 -69.5932 -69.5928 -69.5912 -69.5903 -69.5883
   -47.3737 -47.3736 -47.3733 -46.9675 -35.7094 -35.7081 -35.7069 -35.7041
   -35.6997 -35.6988 -35.6968 -35.6945 -35.6933 -35.6931 -35.6915 -35.6875
   -35.6708 -35.6680 -35.6664 -35.6650 -35.6632 -35.6625 -35.6604 -35.6581
   -35.6546 -35.6525 -35.6515 -35.6495 -21.2197 -21.2130 -21.2125 -21.2121
   -21.2105 -21.2101 -21.2066 -21.2064 -21.2049 -20.8194 -20.8194 -20.8193
     9.0961   9.9952  10.3216  10.7064  11.8867  12.1301  12.3191  12.9827
    13.2417  13.3435  13.4384  13.5814  13.7672  14.0186  14.0350  14.0735
    14.4824  14.5048  14.5384  14.6844  14.8198  14.8571  14.8686  14.8963
    14.9527  15.1104  15.1504  15.2179  15.2703  15.3565  15.4457  15.5283
    15.6685  15.6989  15.7519  15.8058  15.8849  15.9425  16.0055  16.0177
    16.0215  16.0803  16.2822  16.3639  16.3734  16.4919  16.5419  16.5668
    17.8698  17.8991  17.9056  17.9736  18.0364  18.1009  18.1331  18.1681
    18.3314  18.3403  18.4019  18.4798  18.4853  18.5559  18.5708  18.6198
    18.8980  19.0388  19.2239  19.9841  20.1864  20.5401  20.6895  20.7539
    20.8434  21.0731  22.1293  23.0614

          k = 0.2000 0.4000 0.3000 ( 12345 PWs)   bands (ev):

   -69.5980 -69.5962 -69.5946 -69.5932 -69.5928 -69.5915 -69.5898 -69.5880
   -47.3737 -47.3736 -47.3732 -46.9675 -35.7114 -35.7106 -35.7084 -35.7057
   -35.7029 -35.7022 -35.6997 -35.6969 -35.6939 -35.6918 -35.6906 -35.6856
   -35.6725 -35.6693 -35.6680 -35.6634 -35.6617 -35.6598 -35.6567 -35.6546
   -35.6531 -35.6511 -35.6494 -35.6476 -21.2193 -21.2134 -21.2126 -21.2123
   -21.2102 -21.2097 -21.2069 -21.2065 -21.2048 -20.8194 -20.8194 -20.8193
     8.9857   9.8105  10.4574  10.7463  11.9727  12.1339  12.4509  13.0420
    13.1560  13.2528  13.4916  13.6112  13.8119  14.0569  14.0967  14.1377
    14.4149  14.4407  14.5007  14.6426  14.7818  14.8368  14.8569  14.8907
    14.9847  15.1224  15.1536  15.2348  15.2815  15.3417  15.4709  15.5578
    15.6524  15.7642  15.7748  15.8607  15.8641  15.9285  16.0075  16.0339
    16.0480  16.1250  16.3178  16.3909  16.4030  16.4946  16.5923  16.6385
    17.8344  17.8662  17.9047  17.9608  18.0352  18.0882  18.1437  18.1846
    18.2858  18.3091  18.3676  18.4516  18.4720  18.5241  18.5590  18.5984
    18.8855  18.9838  19.3782  19.9562  20.1626  20.2169  20.4085  20.4425
    20.8090  21.0635  22.0240  22.8163

          k = 0.1750 0.4125 0.2625 ( 12338 PWs)   bands (ev):

   -69.5983 -69.5967 -69.5943 -69.5933 -69.5928 -69.5917 -69.5893 -69.5877
   -47.3738 -47.3736 -47.3732 -46.9675 -35.7135 -35.7127 -35.7095 -35.7071
   -35.7057 -35.7053 -35.7028 -35.7002 -35.6930 -35.6905 -35.6893 -35.6837
   -35.6741 -35.6706 -35.6695 -35.6643 -35.6584 -35.6569 -35.6532 -35.6518
   -35.6513 -35.6499 -35.6474 -35.6458 -21.2189 -21.2138 -21.2128 -21.2123
   -21.2100 -21.2092 -21.2072 -21.2066 -21.2048 -20.8194 -20.8194 -20.8193
     8.8938   9.6337  10.5863  10.7913  12.0675  12.1608  12.5378  13.0368
    13.0672  13.1532  13.5843  13.6879  13.8683  14.0912  14.1645  14.2065
    14.3490  14.3783  14.4658  14.6000  14.7333  14.7985  14.8370  14.9111
    15.0158  15.0759  15.1572  15.2793  15.2876  15.3804  15.4882  15.5905
    15.6273  15.7958  15.8034  15.8578  15.8817  15.9758  16.0006  16.0497
    16.0991  16.1717  16.3534  16.4182  16.4282  16.4958  16.6418  16.6969
    17.7977  17.8271  17.9047  17.9525  18.0323  18.0736  18.1410  18.1926
    18.2416  18.2811  18.3360  18.4249  18.4634  18.4894  18.5439  18.5814
    18.8672  18.9382  19.5644  19.7441  19.9197  20.1068  20.1386  20.3415
    20.7934  21.0599  21.9008  22.5665

          k = 0.1500 0.4250 0.2250 ( 12334 PWs)   bands (ev):

   -69.5985 -69.5971 -69.5941 -69.5933 -69.5927 -69.5919 -69.5889 -69.5875
   -47.3738 -47.3736 -47.3732 -46.9675 -35.7154 -35.7149 -35.7105 -35.7083
   -35.7083 -35.7079 -35.7054 -35.7031 -35.6919 -35.6892 -35.6883 -35.6818
   -35.6758 -35.6719 -35.6711 -35.6652 -35.6555 -35.6540 -35.6505 -35.6499
   -35.6489 -35.6484 -35.6456 -35.6442 -21.2184 -21.2143 -21.2130 -21.2124
   -21.2097 -21.2088 -21.2075 -21.2067 -21.2048 -20.8194 -20.8193 -20.8193
     8.8210   9.4682  10.7033  10.8402  12.1669  12.2113  12.5864  12.9667
    13.0037  13.0497  13.7050  13.7857  13.9364  14.1220  14.2141  14.2472
    14.3160  14.3424  14.4353  14.5590  14.6803  14.7565  14.8046  14.9420
    14.9923  15.0507  15.1655  15.2844  15.3486  15.4516  15.4918  15.5850
    15.6329  15.7910  15.8145  15.8342  15.9361  15.9710  16.0688  16.0905
    16.1565  16.2190  16.3885  16.4440  16.4512  16.4969  16.6854  16.7403
    17.7601  17.7845  17.9054  17.9508  18.0280  18.0649  18.1129  18.1850
    18.2130  18.2568  18.3042  18.4038  18.4504  18.4663  18.5271  18.5711
    18.8349  18.9033  19.5424  19.6557  19.7672  19.8261  19.8478  20.5183
    20.7936  21.0621  21.7698  22.3256

          k = 0.1250 0.4375 0.1875 ( 12337 PWs)   bands (ev):

   -69.5987 -69.5975 -69.5938 -69.5933 -69.5927 -69.5922 -69.5884 -69.5873
   -47.3739 -47.3736 -47.3731 -46.9675 -35.7172 -35.7168 -35.7114 -35.7103
   -35.7100 -35.7096 -35.7076 -35.7059 -35.6908 -35.6878 -35.6871 -35.6801
   -35.6775 -35.6732 -35.6727 -35.6661 -35.6530 -35.6516 -35.6495 -35.6481
   -35.6472 -35.6459 -35.6439 -35.6429 -21.2179 -21.2147 -21.2133 -21.2125
   -21.2094 -21.2084 -21.2077 -21.2068 -21.2047 -20.8194 -20.8193 -20.8193
     8.7678   9.3162  10.8046  10.8918  12.2626  12.2867  12.6109  12.8780
    12.9439  12.9498  13.8358  13.8806  14.0167  14.1491  14.1805  14.2073
    14.3685  14.3913  14.4167  14.5209  14.6275  14.7120  14.7624  14.9053
    14.9818  15.0767  15.1718  15.2735  15.4347  15.4788  15.5330  15.5493
    15.6694  15.7746  15.8061  15.8353  15.9389  15.9490  16.1589  16.1830
    16.2178  16.2662  16.4223  16.4670  16.4718  16.4995  16.7208  16.7688
    17.7217  17.7404  17.9120  17.9557  18.0255  18.0615  18.0711  18.1631
    18.1929  18.2313  18.2765  18.3891  18.4231  18.4694  18.5114  18.5668
    18.7860  18.8698  19.3602  19.4407  19.5262  19.5714  20.0235  20.6916
    20.8086  21.0709  21.6379  22.1000

          k = 0.1000 0.4500 0.1500 ( 12333 PWs)   bands (ev):

   -69.5989 -69.5979 -69.5936 -69.5933 -69.5927 -69.5924 -69.5881 -69.5872
   -47.3739 -47.3735 -47.3731 -46.9675 -35.7188 -35.7185 -35.7120 -35.7119
   -35.7116 -35.7105 -35.7097 -35.7082 -35.6897 -35.6863 -35.6859 -35.6791
   -35.6782 -35.6746 -35.6743 -35.6672 -35.6509 -35.6497 -35.6486 -35.6475
   -35.6447 -35.6438 -35.6426 -35.6418 -21.2174 -21.2151 -21.2136 -21.2126
   -21.2092 -21.2083 -21.2077 -21.2068 -21.2047 -20.8194 -20.8193 -20.8193
     8.7345   9.1793  10.8866  10.9444  12.3510  12.3794  12.6241  12.7959
    12.8508  12.8869  13.9554  13.9706  14.1059  14.1173  14.1488  14.1724
    14.3892  14.4510  14.4785  14.4926  14.5788  14.6657  14.7122  14.8188
    15.0223  15.1006  15.1767  15.2578  15.4463  15.4909  15.5337  15.6375
    15.7054  15.7628  15.7869  15.8459  15.9043  15.9214  16.2651  16.2798
    16.2859  16.3128  16.4529  16.4868  16.4890  16.5051  16.7466  16.7837
    17.6832  17.6968  17.9296  17.9674  18.0233  18.0320  18.0657  18.1332
    18.1674  18.1958  18.2670  18.3804  18.4026  18.4793  18.4975  18.5649
    18.7197  18.8223  19.2044  19.2559  19.2838  19.3318  20.2733  20.8377
    20.8532  21.0883  21.5100  21.8941

          k = 0.0750 0.4625 0.1125 ( 12347 PWs)   bands (ev):

   -69.5990 -69.5982 -69.5934 -69.5932 -69.5928 -69.5925 -69.5878 -69.5871
   -47.3739 -47.3735 -47.3731 -46.9675 -35.7202 -35.7199 -35.7132 -35.7129
   -35.7125 -35.7114 -35.7112 -35.7101 -35.6885 -35.6849 -35.6846 -35.6805
   -35.6766 -35.6760 -35.6758 -35.6683 -35.6492 -35.6482 -35.6479 -35.6470
   -35.6428 -35.6421 -35.6416 -35.6410 -21.2169 -21.2155 -21.2138 -21.2127
   -21.2090 -21.2084 -21.2074 -21.2069 -21.2047 -20.8194 -20.8193 -20.8193
     8.7212   9.0590  10.9484  10.9947  12.4381  12.4675  12.6348  12.7261
    12.7662  12.8297  14.0298  14.0562  14.0811  14.0923  14.1878  14.1995
    14.3821  14.4540  14.5326  14.5409  14.5703  14.6191  14.6561  14.7329
    15.0638  15.1200  15.1809  15.2385  15.4020  15.4463  15.6290  15.7186
    15.7350  15.7601  15.7784  15.8415  15.8624  15.8922  16.3406  16.3587
    16.3661  16.3786  16.4776  16.5003  16.5046  16.5180  16.7627  16.7881
    17.6474  17.6563  17.9597  17.9862  17.9987  18.0329  18.0669  18.1005
    18.1371  18.1547  18.2800  18.3797  18.3912  18.4830  18.4914  18.5582
    18.6379  18.7562  19.0210  19.0783  19.1105  19.2030  20.5246  20.8800
    20.9913  21.1166  21.3892  21.7108

          k = 0.0500 0.4750 0.0750 ( 12338 PWs)   bands (ev):

   -69.5990 -69.5985 -69.5932 -69.5932 -69.5928 -69.5927 -69.5876 -69.5871
   -47.3740 -47.3735 -47.3731 -46.9675 -35.7212 -35.7209 -35.7140 -35.7137
   -35.7128 -35.7122 -35.7120 -35.7114 -35.6873 -35.6833 -35.6832 -35.6819
   -35.6774 -35.6774 -35.6748 -35.6695 -35.6478 -35.6473 -35.6472 -35.6467
   -35.6415 -35.6410 -35.6408 -35.6405 -21.2164 -21.2157 -21.2141 -21.2129
   -21.2088 -21.2086 -21.2072 -21.2070 -21.2046 -20.8194 -20.8193 -20.8193
     8.7277   8.9564  10.9916  11.0364  12.5170  12.5389  12.6481  12.6733
    12.6977  12.7786  14.0027  14.0456  14.0910  14.1784  14.1986  14.2858
    14.3867  14.4267  14.5094  14.5740  14.5961  14.6139  14.6440  14.6510
    15.1035  15.1348  15.1831  15.2153  15.3546  15.4093  15.7104  15.7427
    15.7477  15.7750  15.7989  15.8126  15.8358  15.8828  16.3960  16.4040
    16.4392  16.4423  16.4928  16.5038  16.5278  16.5461  16.7701  16.7854
    17.6177  17.6227  17.9813  18.0007  18.0102  18.0388  18.0602  18.0766
    18.1081  18.1166  18.3163  18.3865  18.3929  18.4609  18.5021  18.5328
    18.5611  18.6925  18.8240  18.8960  19.0449  19.1459  20.7593  20.9346
    21.0896  21.1590  21.2779  21.5519

          k = 0.0250 0.4875 0.0375 ( 12334 PWs)   bands (ev):

   -69.5989 -69.5987 -69.5931 -69.5931 -69.5929 -69.5929 -69.5873 -69.5871
   -47.3740 -47.3735 -47.3731 -46.9675 -35.7219 -35.7216 -35.7145 -35.7142
   -35.7129 -35.7127 -35.7125 -35.7124 -35.6861 -35.6833 -35.6818 -35.6818
   -35.6789 -35.6789 -35.6733 -35.6706 -35.6470 -35.6468 -35.6468 -35.6465
   -35.6406 -35.6404 -35.6403 -35.6401 -21.2161 -21.2158 -21.2143 -21.2130
   -21.2087 -21.2086 -21.2071 -21.2070 -21.2046 -20.8194 -20.8193 -20.8193
     8.7531   8.8730  11.0180  11.0634  12.5771  12.5866  12.6392  12.6487
    12.6667  12.7357  13.9671  14.0142  14.1374  14.1978  14.2514  14.3562
    14.3996  14.4194  14.4991  14.5362  14.5376  14.5684  14.6696  14.7020
    15.1379  15.1473  15.1792  15.1887  15.3183  15.3848  15.7422  15.7451
    15.7745  15.7765  15.7795  15.7929  15.8668  15.8810  16.4429  16.4451
    16.4682  16.4706  16.4939  16.4967  16.5615  16.5817  16.7715  16.7804
    17.5981  17.6000  17.9774  18.0289  18.0338  18.0426  18.0527  18.0707
    18.0874  18.0883  18.3647  18.3784  18.4303  18.4396  18.4843  18.5102
    18.5162  18.6478  18.6696  18.7662  19.0139  19.1200  20.9524  21.0000
    21.1290  21.1782  21.2186  21.4174

          k = 0.0000 0.5000 0.0000 ( 12356 PWs)   bands (ev):

   -69.5988 -69.5988 -69.5931 -69.5931 -69.5930 -69.5930 -69.5872 -69.5872
   -47.3740 -47.3735 -47.3731 -46.9675 -35.7223 -35.7220 -35.7149 -35.7146
   -35.7127 -35.7127 -35.7127 -35.7127 -35.6847 -35.6846 -35.6806 -35.6806
   -35.6804 -35.6804 -35.6719 -35.6717 -35.6465 -35.6465 -35.6464 -35.6464
   -35.6406 -35.6404 -35.6403 -35.6402 -21.2160 -21.2160 -21.2145 -21.2130
   -21.2087 -21.2087 -21.2070 -21.2070 -21.2046 -20.8194 -20.8193 -20.8193
     8.7832   8.8235  11.0269  11.0727  12.6095  12.6095  12.6212  12.6212
    12.6833  12.7106  13.9543  14.0030  14.1599  14.1919  14.2828  14.3628
    14.4291  14.4424  14.5040  14.5040  14.5145  14.5145  14.6906  14.7230
    15.1607  15.1607  15.1674  15.1674  15.3046  15.3764  15.7536  15.7536
    15.7545  15.7545  15.7991  15.7991  15.8804  15.8804  16.4744  16.4757
    16.4757  16.4771  16.4785  16.4785  16.5777  16.5974  16.7713  16.7782
    17.5916  17.5917  17.9773  18.0352  18.0384  18.0384  18.0686  18.0686
    18.0773  18.0798  18.3534  18.4114  18.4410  18.4410  18.5031  18.5031
    18.5122  18.5381  18.6551  18.7167  19.0046  19.1124  21.0564  21.0564
    21.1104  21.1104  21.2874  21.3218

[...]
    21.3847  21.6686  21.8675  22.3435

          k = 0.7500 0.4562 0.2937 ( 12337 PWs)   bands (ev):

   -69.5972 -69.5964 -69.5937 -69.5931 -69.5929 -69.5923 -69.5896 -69.5888
   -47.3737 -47.3735 -47.3733 -46.9675 -35.7080 -35.7077 -35.7038 -35.7026
   -35.7025 -35.7021 -35.6998 -35.6985 -35.6880 -35.6852 -35.6846 -35.6801
   -35.6780 -35.6752 -35.6746 -35.6697 -35.6603 -35.6595 -35.6563 -35.6559
   -35.6553 -35.6549 -35.6524 -35.6515 -21.2198 -21.2127 -21.2126 -21.2120
   -21.2108 -21.2101 -21.2067 -21.2062 -21.2049 -20.8194 -20.8194 -20.8193
     9.2784   9.6398  10.6199  10.6985  11.8549  11.9136  12.5222  12.7968
    13.2648  13.2988  13.5377  13.6167  13.8167  13.9527  14.0149  14.0565
    14.4969  14.5000  14.5931  14.6774  14.7679  14.8033  14.9306  14.9567
    15.0154  15.0473  15.0776  15.1457  15.2779  15.3450  15.5460  15.6097
    15.6500  15.6802  15.7345  15.7845  15.8953  15.9059  15.9675  15.9747
    16.1142  16.1491  16.2312  16.2738  16.3664  16.3906  16.5670  16.5909
    17.8646  17.8903  17.9534  17.9990  18.0319  18.0668  18.1405  18.1765
    18.3460  18.3715  18.3912  18.4880  18.5082  18.5296  18.5667  18.6254
    18.8955  18.9363  19.4736  19.7905  20.3376  20.4337  20.5868  20.6214
    21.3512  21.6260  21.9104  22.4136

          k = 0.7500 0.4500 0.3000 ( 12335 PWs)   bands (ev):

   -69.5972 -69.5963 -69.5938 -69.5931 -69.5929 -69.5922 -69.5897 -69.5888
   -47.3737 -47.3735 -47.3733 -46.9675 -35.7079 -35.7075 -35.7039 -35.7026
   -35.7021 -35.7017 -35.6993 -35.6979 -35.6887 -35.6859 -35.6852 -35.6808
   -35.6774 -35.6746 -35.6738 -35.6691 -35.6609 -35.6600 -35.6565 -35.6562
   -35.6554 -35.6552 -35.6525 -35.6516 -21.2198 -21.2127 -21.2126 -21.2120
   -21.2108 -21.2101 -21.2066 -21.2062 -21.2049 -20.8194 -20.8194 -20.8193
     9.2704   9.6814  10.5967  10.6942  11.8491  11.9204  12.4930  12.8060
    13.2727  13.3086  13.5284  13.6135  13.8060  13.9562  14.0100  14.0513
    14.5030  14.5070  14.5929  14.6847  14.7744  14.8111  14.9230  14.9477
    15.0093  15.0529  15.0829  15.1563  15.2736  15.3446  15.5391  15.5960
    15.6540  15.6809  15.7245  15.7833  15.8964  15.9095  15.9711  15.9780
    16.1006  16.1398  16.2332  16.2807  16.3629  16.3942  16.5591  16.5847
    17.8670  17.8948  17.9511  17.9971  18.0328  18.0699  18.1381  18.1742
    18.3487  18.3732  18.3964  18.4917  18.5080  18.5336  18.5705  18.6272
    18.8992  18.9406  19.4385  19.7947  20.3507  20.4649  20.6227  20.6603
    21.3172  21.5835  21.9510  22.4837

          k = 0.7500 0.4437 0.3062 ( 12334 PWs)   bands (ev):

   -69.5973 -69.5962 -69.5939 -69.5931 -69.5929 -69.5921 -69.5898 -69.5888
   -47.3737 -47.3735 -47.3733 -46.9675 -35.7078 -35.7073 -35.7041 -35.7026
   -35.7016 -35.7012 -35.6988 -35.6972 -35.6893 -35.6867 -35.6858 -35.6814
   -35.6768 -35.6739 -35.6730 -35.6685 -35.6615 -35.6605 -35.6572 -35.6563
   -35.6558 -35.6551 -35.6526 -35.6515 -21.2198 -21.2127 -21.2126 -21.2120
   -21.2108 -21.2101 -21.2066 -21.2062 -21.2049 -20.8194 -20.8194 -20.8193
     9.2631   9.7232  10.5710  10.6905  11.8435  11.9298  12.4637  12.8147
    13.2800  13.3183  13.5192  13.6105  13.7959  13.9593  14.0056  14.0464
    14.5089  14.5138  14.5926  14.6912  14.7815  14.8190  14.9153  14.9396
    15.0029  15.0579  15.0885  15.1666  15.2689  15.3450  15.5327  15.5815
    15.6583  15.6817  15.7148  15.7817  15.8976  15.9134  15.9750  15.9813
    16.0874  16.1306  16.2351  16.2875  16.3595  16.3987  16.5514  16.5781
    17.8695  17.8991  17.9484  17.9954  18.0336  18.0732  18.1359  18.1718
    18.3514  18.3742  18.4017  18.4949  18.5076  18.5378  18.5740  18.6290
    18.9023  18.9463  19.4045  19.7987  20.3621  20.4969  20.6589  20.6981
    21.2827  21.5412  21.9892  22.5537

          k = 0.7500 0.4375 0.3125 ( 12334 PWs)   bands (ev):

   -69.5973 -69.5961 -69.5940 -69.5931 -69.5929 -69.5920 -69.5899 -69.5887
   -47.3737 -47.3735 -47.3733 -46.9675 -35.7077 -35.7071 -35.7042 -35.7025
   -35.7012 -35.7007 -35.6983 -35.6965 -35.6899 -35.6873 -35.6865 -35.6822
   -35.6760 -35.6732 -35.6723 -35.6679 -35.6622 -35.6611 -35.6578 -35.6564
   -35.6563 -35.6551 -35.6528 -35.6515 -21.2199 -21.2127 -21.2126 -21.2120
   -21.2108 -21.2102 -21.2066 -21.2062 -21.2049 -20.8194 -20.8194 -20.8193
     9.2563   9.7651  10.5430  10.6872  11.8383  11.9415  12.4343  12.8229
    13.2867  13.3281  13.5100  13.6076  13.7864  13.9622  14.0016  14.0419
    14.5145  14.5203  14.5922  14.6969  14.7890  14.8270  14.9076  14.9324
    14.9963  15.0623  15.0940  15.1765  15.2639  15.3464  15.5268  15.5666
    15.6624  15.6828  15.7055  15.7795  15.8990  15.9176  15.9792  15.9845
    16.0746  16.1215  16.2369  16.2940  16.3562  16.4040  16.5438  16.5712
    17.8719  17.9032  17.9453  17.9939  18.0342  18.0765  18.1337  18.1693
    18.3541  18.3749  18.4068  18.4977  18.5071  18.5421  18.5772  18.6307
    18.9048  18.9534  19.3715  19.8023  20.3720  20.5297  20.6954  20.7345
    21.2476  21.4990  22.0247  22.6235

          k = 0.7500 0.4312 0.3187 ( 12337 PWs)   bands (ev):

   -69.5973 -69.5960 -69.5941 -69.5931 -69.5929 -69.5919 -69.5900 -69.5888
   -47.3737 -47.3736 -47.3733 -46.9675 -35.7077 -35.7069 -35.7043 -35.7026
   -35.7008 -35.7002 -35.6978 -35.6959 -35.6905 -35.6881 -35.6871 -35.6829
   -35.6753 -35.6726 -35.6716 -35.6672 -35.6628 -35.6616 -35.6584 -35.6569
   -35.6563 -35.6549 -35.6529 -35.6515 -21.2199 -21.2127 -21.2125 -21.2120
   -21.2108 -21.2102 -21.2065 -21.2062 -21.2049 -20.8194 -20.8194 -20.8193
     9.2501   9.8072  10.5131  10.6844  11.8335  11.9554  12.4048  12.8305
    13.2927  13.3378  13.5010  13.6050  13.7775  13.9648  13.9980  14.0378
    14.5198  14.5266  14.5916  14.7018  14.7967  14.8349  14.9000  14.9261
    14.9896  15.0661  15.0994  15.1860  15.2587  15.3489  15.5213  15.5518
    15.6658  15.6846  15.6968  15.7769  15.9004  15.9221  15.9838  15.9874
    16.0623  16.1126  16.2386  16.3003  16.3532  16.4101  16.5365  16.5639
    17.8746  17.9070  17.9420  17.9925  18.0346  18.0799  18.1316  18.1669
    18.3567  18.3752  18.4116  18.5000  18.5065  18.5464  18.5800  18.6323
    18.9066  18.9622  19.3396  19.8056  20.3807  20.5630  20.7320  20.7692
    21.2123  21.4571  22.0573  22.6930

          k = 0.7500 0.4250 0.3250 ( 12339 PWs)   bands (ev):

   -69.5973 -69.5959 -69.5942 -69.5932 -69.5929 -69.5918 -69.5901 -69.5887
   -47.3737 -47.3736 -47.3733 -46.9675 -35.7076 -35.7068 -35.7045 -35.7026
   -35.7003 -35.6996 -35.6973 -35.6952 -35.6911 -35.6889 -35.6877 -35.6837
   -35.6747 -35.6719 -35.6708 -35.6666 -35.6635 -35.6621 -35.6591 -35.6574
   -35.6563 -35.6548 -35.6530 -35.6515 -21.2199 -21.2127 -21.2125 -21.2120
   -21.2108 -21.2102 -21.2065 -21.2062 -21.2049 -20.8194 -20.8194 -20.8193
     9.2446   9.8493  10.4813  10.6818  11.8291  11.9711  12.3754  12.8375
    13.2981  13.3474  13.4921  13.6026  13.7695  13.9670  13.9949  14.0340
    14.5246  14.5325  14.5908  14.7061  14.8045  14.8427  14.8929  14.9206
    14.9828  15.0695  15.1044  15.1949  15.2535  15.3524  15.5156  15.5377
    15.6680  15.6864  15.6898  15.7738  15.9018  15.9269  15.9885  15.9902
    16.0504  16.1039  16.2401  16.3063  16.3504  16.4168  16.5296  16.5563
    17.8773  17.9105  17.9384  17.9914  18.0350  18.0833  18.1297  18.1643
    18.3592  18.3754  18.4162  18.5016  18.5061  18.5507  18.5825  18.6339
    18.9079  18.9724  19.3089  19.8085  20.3882  20.5968  20.7684  20.8020
    21.1767  21.4153  22.0869  22.7621

          k = 0.7500 0.4187 0.3312 ( 12337 PWs)   bands (ev):

   -69.5973 -69.5958 -69.5943 -69.5932 -69.5929 -69.5917 -69.5902 -69.5887
   -47.3737 -47.3736 -47.3733 -46.9675 -35.7076 -35.7066 -35.7046 -35.7025
   -35.6999 -35.6991 -35.6968 -35.6945 -35.6917 -35.6896 -35.6883 -35.6844
   -35.6740 -35.6712 -35.6701 -35.6659 -35.6641 -35.6627 -35.6598 -35.6579
   -35.6562 -35.6547 -35.6531 -35.6515 -21.2200 -21.2127 -21.2125 -21.2120
   -21.2108 -21.2103 -21.2065 -21.2062 -21.2049 -20.8194 -20.8194 -20.8193
     9.2398   9.8915  10.4480  10.6796  11.8252  11.9887  12.3462  12.8438
    13.3028  13.3570  13.4833  13.6004  13.7623  13.9689  13.9923  14.0306
    14.5291  14.5382  14.5897  14.7099  14.8120  14.8502  14.8864  14.9159
    14.9759  15.0724  15.1089  15.2031  15.2483  15.3571  15.5087  15.5255
    15.6685  15.6817  15.6917  15.7702  15.9031  15.9318  15.9920  15.9943
    16.0391  16.0953  16.2415  16.3121  16.3478  16.4242  16.5231  16.5483
    17.8801  17.9137  17.9348  17.9904  18.0353  18.0864  18.1281  18.1618
    18.3616  18.3755  18.4204  18.5024  18.5062  18.5548  18.5845  18.6353
    18.9087  18.9840  19.2792  19.8112  20.3947  20.6311  20.8040  20.8332
    21.1408  21.3738  22.1133  22.8306

          k = 0.7500 0.4125 0.3375 ( 12341 PWs)   bands (ev):

   -69.5973 -69.5957 -69.5945 -69.5932 -69.5929 -69.5916 -69.5903 -69.5887
   -47.3737 -47.3736 -47.3733 -46.9675 -35.7075 -35.7064 -35.7048 -35.7025
   -35.6994 -35.6986 -35.6963 -35.6938 -35.6922 -35.6904 -35.6889 -35.6851
   -35.6733 -35.6706 -35.6693 -35.6654 -35.6647 -35.6632 -35.6604 -35.6585
   -35.6563 -35.6546 -35.6533 -35.6516 -21.2200 -21.2127 -21.2125 -21.2120
   -21.2108 -21.2103 -21.2064 -21.2062 -21.2049 -20.8194 -20.8194 -20.8193
     9.2355   9.9336  10.4132  10.6777  11.8217  12.0078  12.3171  12.8494
    13.3069  13.3665  13.4745  13.5984  13.7559  13.9704  13.9903  14.0276
    14.5330  14.5434  14.5885  14.7130  14.8191  14.8570  14.8810  14.9121
    14.9689  15.0749  15.1129  15.2104  15.2434  15.3629  15.4985  15.5174
    15.6666  15.6776  15.6961  15.7664  15.9044  15.9371  15.9942  15.9997
    16.0283  16.0868  16.2427  16.3173  16.3455  16.4321  16.5172  16.5401
    17.8831  17.9164  17.9311  17.9895  18.0356  18.0894  18.1267  18.1593
    18.3638  18.3754  18.4241  18.5021  18.5069  18.5587  18.5861  18.6366
    18.9092  18.9969  19.2508  19.8134  20.4002  20.6658  20.8373  20.8639
    21.1049  21.3325  22.1365  22.8983

          k = 0.7500 0.4062 0.3437 ( 12337 PWs)   bands (ev):

   -69.5973 -69.5956 -69.5946 -69.5932 -69.5929 -69.5915 -69.5904 -69.5887
   -47.3737 -47.3736 -47.3733 -46.9675 -35.7075 -35.7063 -35.7049 -35.7025
   -35.6989 -35.6980 -35.6958 -35.6931 -35.6927 -35.6911 -35.6895 -35.6858
   -35.6725 -35.6699 -35.6685 -35.6653 -35.6647 -35.6638 -35.6611 -35.6590
   -35.6563 -35.6545 -35.6534 -35.6516 -21.2200 -21.2127 -21.2125 -21.2120
   -21.2108 -21.2103 -21.2064 -21.2062 -21.2049 -20.8194 -20.8194 -20.8193
     9.2320   9.9757  10.3772  10.6761  11.8188  12.0284  12.2882  12.8542
    13.3104  13.3758  13.4658  13.5967  13.7504  13.9715  13.9887  14.0250
    14.5365  14.5483  14.5872  14.7157  14.8255  14.8622  14.8774  14.9093
    14.9619  15.0771  15.1163  15.2168  15.2389  15.3698  15.4856  15.5127
    15.6626  15.6759  15.7011  15.7622  15.9056  15.9425  15.9961  16.0056
    16.0181  16.0785  16.2438  16.3219  16.3435  16.4404  16.5118  16.5316
    17.8861  17.9185  17.9277  17.9888  18.0358  18.0921  18.1256  18.1570
    18.3658  18.3753  18.4274  18.5015  18.5077  18.5624  18.5873  18.6379
    18.9096  19.0111  19.2235  19.8154  20.4048  20.7008  20.8654  20.8963
    21.0692  21.2914  22.1562  22.9646

          k = 0.7500 0.4000 0.3500 ( 12334 PWs)   bands (ev):

   -69.5973 -69.5955 -69.5947 -69.5932 -69.5929 -69.5914 -69.5905 -69.5887
   -47.3737 -47.3736 -47.3733 -46.9675 -35.7074 -35.7061 -35.7050 -35.7025
   -35.6984 -35.6974 -35.6954 -35.6931 -35.6924 -35.6917 -35.6901 -35.6866
   -35.6718 -35.6693 -35.6678 -35.6660 -35.6644 -35.6641 -35.6617 -35.6596
   -35.6562 -35.6544 -35.6535 -35.6516 -21.2200 -21.2127 -21.2125 -21.2120
   -21.2108 -21.2103 -21.2064 -21.2062 -21.2049 -20.8194 -20.8194 -20.8193
     9.2290  10.0176  10.3402  10.6748  11.8164  12.0502  12.2597  12.8582
    13.3132  13.3851  13.4572  13.5953  13.7459  13.9723  13.9876  14.0228
    14.5395  14.5527  14.5857  14.7179  14.8311  14.8638  14.8775  14.9078
    14.9549  15.0789  15.1191  15.2220  15.2352  15.3779  15.4719  15.5097
    15.6582  15.6753  15.7061  15.7580  15.9066  15.9482  15.9976  16.0083
    16.0118  16.0703  16.2447  16.3260  16.3419  16.4491  16.5072  16.5229
    17.8892  17.9192  17.9252  17.9883  18.0359  18.0943  18.1249  18.1548
    18.3676  18.3751  18.4302  18.5008  18.5084  18.5656  18.5881  18.6389
    18.9098  19.0265  19.1974  19.8169  20.4085  20.7361  20.8873  20.9306
    21.0344  21.2506  22.1725  23.0291

          k = 0.7500 0.3937 0.3562 ( 12332 PWs)   bands (ev):

   -69.5973 -69.5954 -69.5948 -69.5932 -69.5929 -69.5912 -69.5906 -69.5887
   -47.3737 -47.3736 -47.3733 -46.9675 -35.7074 -35.7059 -35.7051 -35.7024
   -35.6979 -35.6968 -35.6953 -35.6933 -35.6923 -35.6917 -35.6907 -35.6873
   -35.6712 -35.6687 -35.6671 -35.6666 -35.6649 -35.6636 -35.6624 -35.6601
   -35.6563 -35.6542 -35.6536 -35.6516 -21.2200 -21.2127 -21.2125 -21.2120
   -21.2108 -21.2104 -21.2064 -21.2062 -21.2049 -20.8194 -20.8194 -20.8193
     9.2267  10.0592  10.3022  10.6738  11.8145  12.0730  12.2317  12.8614
    13.3154  13.3941  13.4486  13.5941  13.7424  13.9727  13.9869  14.0211
    14.5418  14.5566  14.5841  14.7196  14.8357  14.8624  14.8801  14.9079
    14.9481  15.0803  15.1213  15.2253  15.2329  15.3869  15.4582  15.5077
    15.6544  15.6750  15.7110  15.7538  15.9074  15.9543  15.9987  15.9992
    16.0183  16.0623  16.2453  16.3292  16.3406  16.4580  16.5034  16.5141
    17.8923  17.9175  17.9249  17.9879  18.0361  18.0961  18.1245  18.1528
    18.3691  18.3748  18.4325  18.5001  18.5090  18.5683  18.5885  18.6397
    18.9099  19.0429  19.1727  19.8182  20.4114  20.7716  20.9032  20.9615
    21.0053  21.2100  22.1853  23.0904

          k = 0.7500 0.3875 0.3625 ( 12329 PWs)   bands (ev):

   -69.5973 -69.5953 -69.5949 -69.5932 -69.5929 -69.5911 -69.5907 -69.5887
   -47.3737 -47.3736 -47.3733 -46.9675 -35.7073 -35.7058 -35.7053 -35.7024
   -35.6973 -35.6963 -35.6955 -35.6932 -35.6928 -35.6912 -35.6911 -35.6880
   -35.6706 -35.6680 -35.6672 -35.6664 -35.6656 -35.6630 -35.6630 -35.6607
   -35.6562 -35.6541 -35.6537 -35.6516 -21.2200 -21.2127 -21.2125 -21.2120
   -21.2108 -21.2104 -21.2064 -21.2062 -21.2049 -20.8194 -20.8194 -20.8193
     9.2251  10.1006  10.2634  10.6731  11.8132  12.0967  12.2044  12.8636
    13.3169  13.4030  13.4401  13.5933  13.7398  13.9729  13.9865  14.0199
    14.5435  14.5597  14.5825  14.7208  14.8391  14.8605  14.8825  14.9098
    14.9418  15.0813  15.1228  15.2259  15.2330  15.3969  15.4448  15.5063
    15.6515  15.6749  15.7154  15.7499  15.9080  15.9607  15.9905  15.9996
    16.0251  16.0545  16.2458  16.3317  16.3397  16.4672  16.5001  16.5055
    17.8953  17.9147  17.9255  17.9876  18.0361  18.0974  18.1243  18.1513
    18.3704  18.3744  18.4341  18.4995  18.5094  18.5704  18.5887  18.6404
    18.9099  19.0602  19.1495  19.8190  20.4135  20.8071  20.9126  20.9552
    21.0161  21.1698  22.1944  23.1461

          k = 0.7500 0.3812 0.3687 ( 12335 PWs)   bands (ev):

   -69.5973 -69.5952 -69.5950 -69.5931 -69.5929 -69.5910 -69.5908 -69.5887
   -47.3737 -47.3736 -47.3733 -46.9675 -35.7073 -35.7057 -35.7054 -35.7025
   -35.6968 -35.6958 -35.6958 -35.6933 -35.6928 -35.6918 -35.6905 -35.6886
   -35.6701 -35.6677 -35.6674 -35.6661 -35.6658 -35.6635 -35.6624 -35.6613
   -35.6563 -35.6540 -35.6538 -35.6516 -21.2200 -21.2127 -21.2125 -21.2120
   -21.2108 -21.2104 -21.2064 -21.2062 -21.2049 -20.8194 -20.8194 -20.8193
     9.2241  10.1412  10.2244  10.6727  11.8124  12.1205  12.1785  12.8650
    13.3179  13.4113  13.4321  13.5928  13.7383  13.9730  13.9864  14.0191
    14.5446  14.5619  14.5813  14.7215  14.8412  14.8592  14.8837  14.9125
    14.9367  15.0819  15.1237  15.2252  15.2341  15.4078  15.4318  15.5055
    15.6497  15.6748  15.7186  15.7470  15.9084  15.9674  15.9824  16.0001
    16.0321  16.0469  16.2461  16.3331  16.3391  16.4764  16.4944  16.5002
    17.8977  17.9122  17.9260  17.9874  18.0362  18.0982  18.1243  18.1503
    18.3713  18.3740  18.4351  18.4991  18.5096  18.5717  18.5888  18.6407
    18.9100  19.0772  19.1288  19.8196  20.4147  20.8425  20.9060  20.9361
    21.0517  21.1299  22.1998  23.1902

          k = 0.7500 0.3750 0.3750 ( 12334 PWs)   bands (ev):

   -69.5973 -69.5951 -69.5951 -69.5932 -69.5929 -69.5909 -69.5909 -69.5887
   -47.3737 -47.3736 -47.3733 -46.9675 -35.7073 -35.7055 -35.7055 -35.7025
   -35.6964 -35.6961 -35.6957 -35.6935 -35.6924 -35.6922 -35.6902 -35.6891
   -35.6701 -35.6680 -35.6669 -35.6666 -35.6655 -35.6638 -35.6619 -35.6617
   -35.6563 -35.6539 -35.6539 -35.6516 -21.2200 -21.2127 -21.2125 -21.2120
   -21.2108 -21.2104 -21.2064 -21.2062 -21.2049 -20.8194 -20.8194 -20.8193
     9.2238  10.1735  10.1926  10.6725  11.8121  12.1369  12.1614  12.8654
    13.3182  13.4164  13.4271  13.5926  13.7377  13.9730  13.9864  14.0188
    14.5449  14.5627  14.5809  14.7218  14.8419  14.8587  14.8841  14.9140
    14.9345  15.0822  15.1240  15.2248  15.2345  15.4194  15.4197  15.5051
    15.6491  15.6748  15.7199  15.7458  15.9085  15.9740  15.9754  16.0003
    16.0388  16.0401  16.2462  16.3336  16.3389  16.4852  16.4860  16.4993
    17.8988  17.9111  17.9262  17.9873  18.0362  18.0984  18.1243  18.1499
    18.3717  18.3738  18.4354  18.4990  18.5097  18.5722  18.5887  18.6408
    18.9100  19.0876  19.1174  19.8197  20.4151  20.8750  20.8790  20.9335
    21.0873  21.0936  22.2016  23.2087

     Writing all to output data dir ./work/pwscf.save/

     init_run     :      1.19s CPU      1.31s WALL (       1 calls)
     electrons    :    242.37s CPU    249.63s WALL (       1 calls)

     Called by init_run:
     wfcinit      :      0.00s CPU      0.00s WALL (       1 calls)
     wfcinit:atom :      0.13s CPU      0.14s WALL (     101 calls)
     wfcinit:wfcr :     14.97s CPU     15.66s WALL (     101 calls)
     potinit      :      0.50s CPU      0.55s WALL (       1 calls)
     hinit0       :      0.39s CPU      0.41s WALL (       1 calls)

     Called by electrons:
     c_bands      :    242.36s CPU    249.62s WALL (       1 calls)
     v_of_rho     :      0.03s CPU      0.04s WALL (       1 calls)
     v_h          :      0.00s CPU      0.00s WALL (       1 calls)
     v_xc         :      0.03s CPU      0.04s WALL (       1 calls)
     newd         :      0.22s CPU      0.26s WALL (       1 calls)
     PAW_pot      :      0.20s CPU      0.20s WALL (       1 calls)

     Called by c_bands:
     init_us_2    :      0.13s CPU      0.14s WALL (     101 calls)
     init_us_2:cp :      0.13s CPU      0.14s WALL (     101 calls)
     cegterg      :    225.05s CPU    231.00s WALL (     147 calls)

     Called by sum_band:

     Called by *egterg:
     cdiaghg      :     40.61s CPU     40.66s WALL (    2091 calls)
     cegterg:over :     28.89s CPU     29.28s WALL (    1990 calls)
     cegterg:upda :      9.97s CPU     10.01s WALL (    1990 calls)
     cegterg:last :     25.61s CPU     25.61s WALL (    1011 calls)
     h_psi        :    103.66s CPU    109.52s WALL (    2238 calls)
     s_psi        :     13.09s CPU     13.24s WALL (    2238 calls)
     g_psi        :      0.60s CPU      0.60s WALL (    1990 calls)

     Called by h_psi:
     h_psi:calbec :     18.69s CPU     19.48s WALL (    2238 calls)
     vloc_psi     :     70.25s CPU     75.23s WALL (    2238 calls)
     add_vuspsi   :     13.99s CPU     14.06s WALL (    2238 calls)

     General routines
     calbec       :     18.68s CPU     19.47s WALL (    2238 calls)
     fft          :      0.27s CPU      0.28s WALL (      13 calls)
     ffts         :      0.26s CPU      0.27s WALL (       1 calls)
     fftw         :     65.31s CPU     69.93s WALL (  284624 calls)
     interpolate  :      0.26s CPU      0.27s WALL (       1 calls)

     Parallel routines

     PAW routines
     PAW_pot      :      0.20s CPU      0.20s WALL (       1 calls)

     PWSCF        :   4m 5.42s CPU   4m30.68s WALL


   This run was terminated on:  11:30:45  22Sep2023            

=------------------------------------------------------------------------------=
   JOB DONE.
=------------------------------------------------------------------------------=
