<UPF version="2.0.1">
  <PP_INFO>
    Generated using "atomic" code by A. Dal Corso  v.7.2
    Author: ADC
    Generation date: 22Sep2023
    Pseudopotential type: USPP
    Element: Ar
    Functional: PBESOL
    Suggested minimum cutoff for wavefunctions:  48. Ry
    Suggested minimum cutoff for charge density: 225. Ry
    The Pseudo was generated with a Scalar-Relativistic Calculation
    Local Potential by smoothing AE potential with Bessel fncs, cutoff radius:   1.8000
    Valence configuration: 
    nl pn  l   occ       Rcut    Rcut US       E pseu
    3S  1  0  2.00      1.200      1.500    -1.778726
    3P  2  1  6.00      1.200      1.500    -0.752118
    Generation configuration:
    3S  1  0  2.00      1.200      1.500    -1.778724
    3S  1  0  0.00      1.200      1.500     5.000000
    3P  2  1  6.00      1.200      1.500    -0.752115
    3P  2  1  0.00      1.200      1.500     2.500000
    3D  3  2  0.00      1.400      1.500     0.100000
    3D  3  2  0.00      1.400      1.500     0.300000
    Pseudization used: troullier-martins
    <PP_INPUTFILE>
@input
title='Ar',
zed=18.,
rel=1,
config='[Ne] 3s2 3p6 3d-1',
iswitch=3,
dft='PBESOL'
/
@inputp
lpaw=.false.,
pseudotype=3,
file_pseudopw='Ar.pbesol-n-rrkjus_psl.1.0.0.UPF',
author='ADC',
lloc=-1,
rcloc=1.8,
which_augfun='PSQ',
rmatch_augfun_nc=.true.,
nlcc=.true.,
new_core_ps=.true.,
rcore=1.2,
tm=.true.
/
6
3S  1  0  2.00  0.00  1.20  1.50  0.0
3S  1  0  0.00  5.00  1.20  1.50  0.0
3P  2  1  6.00  0.00  1.20  1.50  0.0
3P  2  1  0.00  2.50  1.20  1.50  0.0
3D  3  2  0.00  0.10  1.40  1.50  0.0
3D  3  2  0.00  0.30  1.40  1.50  0.0
    </PP_INPUTFILE>
  </PP_INFO>
    <!-- END OF HUMAN READABLE SECTION -->
  <PP_HEADER generated="Generated using 'atomic' code by A. Dal Corso  v.7.2" author="ADC" date="22Sep2023" comment="" element="Ar" pseudo_type="USPP" relativistic="scalar" is_ultrasoft="true" is_paw="false" is_coulomb="false" has_so="false" has_wfc="false" has_gipaw="false" paw_as_gipaw="false" core_correction="true" functional="PBESOL" z_valence="8.0000000000000000" total_psenergy="-43.070774181530147" wfc_cutoff="47.586272739712854" rho_cutoff="224.79231006483084" l_max="2" l_max_rho="4" l_local="-1" mesh_size="1161" number_of_wfc="2" number_of_proj="6"/>
  <PP_MESH mesh="1161" dx="1.2500000000000001E-002" xmin="-7.0000000000000000" rmax="100.00000000000000" zmesh="18.000000000000000">
    <PP_R>
   5.066010919747313E-05   5.129733492605679E-05   5.194257596758790E-05
   5.259593314229189E-05   5.325750853855666E-05   5.392740552888383E-05
   5.460572878604103E-05   5.529258429941729E-05   5.598807939158392E-05
   5.669232273506414E-05   5.740542436931316E-05   5.812749571791214E-05
   5.885864960597834E-05   5.959900027779427E-05   6.034866341465877E-05
   6.110775615296213E-05   6.187639710248906E-05   6.265470636495180E-05
   6.344280555275598E-05   6.424081780800321E-05   6.504886782173191E-05
   6.586708185340071E-05   6.669558775061671E-05   6.753451496911193E-05
   6.838399459297117E-05   6.924415935511387E-05   7.011514365803413E-05
   7.099708359480135E-05   7.189011697032488E-05   7.279438332288666E-05
   7.371002394594397E-05   7.463718191020704E-05   7.557600208599411E-05
   7.652663116586761E-05   7.748921768755548E-05   7.846391205716009E-05
   7.945086657265969E-05   8.045023544770531E-05   8.146217483571684E-05
   8.248684285428261E-05   8.352439960986513E-05   8.457500722281842E-05
   8.563882985271946E-05   8.671603372401845E-05   8.780678715201206E-05
   8.891126056914246E-05   9.002962655162815E-05   9.116205984642922E-05
   9.230873739855189E-05   9.346983837869673E-05   9.464554421125410E-05
   9.583603860265235E-05   9.704150757006220E-05   9.826213947046225E-05
   9.949812503007054E-05   1.007496573741453E-04   1.020169320571615E-04
   1.033001470933667E-04   1.045995029877210E-04   1.059152027672265E-04
   1.072474520126505E-04   1.085964588906482E-04   1.099624341862887E-04
   1.113455913359911E-04   1.127461464608741E-04   1.141643184005255E-04
   1.156003287471961E-04   1.170544018804241E-04   1.185267650020949E-04
   1.200176481719419E-04   1.215272843434936E-04   1.230559094004732E-04
   1.246037621936558E-04   1.261710845781893E-04   1.277581214513853E-04
   1.293651207909841E-04   1.309923336939018E-04   1.326400144154652E-04
   1.343084204091391E-04   1.359978123667546E-04   1.377084542592422E-04
   1.394406133778777E-04   1.411945603760477E-04   1.429705693115389E-04
   1.447689176893610E-04   1.465898865051068E-04   1.484337602888584E-04
   1.503008271496459E-04   1.521913788204649E-04   1.541057107038605E-04
   1.560441219180840E-04   1.580069153438315E-04   1.599943976715691E-04
   1.620068794494538E-04   1.640446751318582E-04   1.661081031285033E-04
   1.681974858542120E-04   1.703131497792857E-04   1.724554254805172E-04
   1.746246476928434E-04   1.768211553616482E-04   1.790452916957237E-04
   1.812974042208971E-04   1.835778448343323E-04   1.858869698595151E-04
   1.882251401019284E-04   1.905927209054297E-04   1.929900822093363E-04
   1.954175986062294E-04   1.978756494004850E-04   2.003646186675406E-04
   2.028848953139080E-04   2.054368731379407E-04   2.080209508913656E-04
   2.106375323415893E-04   2.132870263347869E-04   2.159698468597850E-04
   2.186864131127491E-04   2.214371495626828E-04   2.242224860177532E-04
   2.270428576924482E-04   2.298987052755798E-04   2.327904749991433E-04
   2.357186187080411E-04   2.386835939306855E-04   2.416858639504872E-04
   2.447258978782448E-04   2.478041707254445E-04   2.509211634784814E-04
   2.540773631738151E-04   2.572732629740692E-04   2.605093622450895E-04
   2.637861666339710E-04   2.671041881480659E-04   2.704639452349868E-04
   2.738659628636140E-04   2.773107726061232E-04   2.807989127210452E-04
   2.843309282373695E-04   2.879073710397069E-04   2.915287999545213E-04
   2.951957808374486E-04   2.989088866617122E-04   3.026686976076514E-04
   3.064758011533762E-04   3.103307921665611E-04   3.142342729973949E-04
   3.181868535726992E-04   3.221891514912301E-04   3.262417921201807E-04
   3.303454086928941E-04   3.345006424078088E-04   3.387081425286466E-04
   3.429685664858612E-04   3.472825799793645E-04   3.516508570825415E-04
   3.560740803475769E-04   3.605529409121048E-04   3.650881386072007E-04
   3.696803820667319E-04   3.743303888380815E-04   3.790388854942682E-04
   3.838066077474740E-04   3.886343005640006E-04   3.935227182806736E-04
   3.984726247227055E-04   4.034847933230495E-04   4.085600072432465E-04
   4.136990594957965E-04   4.189027530680709E-04   4.241719010477757E-04
   4.295073267500039E-04   4.349098638458763E-04   4.403803564928053E-04
   4.459196594663979E-04   4.515286382940117E-04   4.572081693900017E-04
   4.629591401926561E-04   4.687824493028628E-04   4.746790066245193E-04
   4.806497335067019E-04   4.866955628876349E-04   4.928174394404588E-04
   4.990163197208398E-04   5.052931723164346E-04   5.116489779982300E-04
   5.180847298737959E-04   5.246014335424562E-04   5.312001072524169E-04
   5.378817820598718E-04   5.446475019901015E-04   5.514983242006118E-04
   5.584353191463103E-04   5.654595707467705E-04   5.725721765555972E-04
   5.797742479319169E-04   5.870669102140363E-04   5.944513028952737E-04
   6.019285798020084E-04   6.094999092739715E-04   6.171664743467947E-04
   6.249294729368703E-04   6.327901180285209E-04   6.407496378635345E-04
   6.488092761330807E-04   6.569702921720343E-04   6.652339611557568E-04
   6.736015742993388E-04   6.820744390593575E-04   6.906538793381718E-04
   6.993412356907777E-04   7.081378655342816E-04   7.170451433599930E-04
   7.260644609481934E-04   7.351972275856078E-04   7.444448702856015E-04
   7.538088340111630E-04   7.632905819006746E-04   7.728915954965344E-04
   7.826133749766520E-04   7.924574393888476E-04   8.024253268882156E-04
   8.125185949774568E-04   8.227388207502444E-04   8.330876011376510E-04
   8.435665531576637E-04   8.541773141678573E-04   8.649215421212272E-04
   8.758009158252492E-04   8.868171352042013E-04   8.979719215647708E-04
   9.092670178650238E-04   9.207041889867364E-04   9.322852220111644E-04
   9.440119264982824E-04   9.558861347695213E-04   9.679097021940841E-04
   9.800845074788424E-04   9.924124529618909E-04   1.004895464909795E-03
   1.017535493818565E-03   1.030334514718438E-03   1.043294527482467E-03
   1.056417557139014E-03   1.069705654188163E-03   1.083160894922111E-03
   1.096785381749599E-03   1.110581243524413E-03   1.124550635878022E-03
   1.138695741556403E-03   1.153018770761097E-03   1.167521961494557E-03
   1.182207579909843E-03   1.197077920664710E-03   1.212135307280154E-03
   1.227382092503469E-03   1.242820658675867E-03   1.258453418104721E-03
   1.274282813440496E-03   1.290311318058421E-03   1.306541436444950E-03
   1.322975704589104E-03   1.339616690378715E-03   1.356466994001669E-03
   1.373529248352189E-03   1.390806119442230E-03   1.408300306818052E-03
   1.426014543982024E-03   1.443951598819742E-03   1.462114274032517E-03
   1.480505407575305E-03   1.499127873100138E-03   1.517984580405143E-03
   1.537078475889199E-03   1.556412543012324E-03   1.575989802761839E-03
   1.595813314124413E-03   1.615886174564026E-03   1.636211520505961E-03
   1.656792527826873E-03   1.677632412351028E-03   1.698734430352783E-03
   1.720101879065383E-03   1.741738097196160E-03   1.763646465448220E-03
   1.785830407048670E-03   1.808293388283524E-03   1.831038919039298E-03
   1.854070553351449E-03   1.877391889959698E-03   1.901006572870335E-03
   1.924918291925612E-03   1.949130783380280E-03   1.973647830485387E-03
   1.998473264079426E-03   2.023610963186902E-03   2.049064855624445E-03
   2.074838918614535E-03   2.100937179406949E-03   2.127363715908037E-03
   2.154122657317889E-03   2.181218184775546E-03   2.208654532012295E-03
   2.236435986013214E-03   2.264566887687012E-03   2.293051632544308E-03
   2.321894671384440E-03   2.351100510990906E-03   2.380673714835566E-03
   2.410618903791688E-03   2.440940756855968E-03   2.471644011879640E-03
   2.502733466308768E-03   2.534213977933856E-03   2.566090465648896E-03
   2.598367910219944E-03   2.631051355063385E-03   2.664145907033971E-03
   2.697656737222776E-03   2.731589081765199E-03   2.765948242659108E-03
   2.800739588593299E-03   2.835968555786357E-03   2.871640648836079E-03
   2.907761441579577E-03   2.944336577964211E-03   2.981371772929452E-03
   3.018872813299861E-03   3.056845558689292E-03   3.095295942416467E-03
   3.134229972432075E-03   3.173653732257516E-03   3.213573381935471E-03
   3.253995158992420E-03   3.294925379413262E-03   3.336370438628219E-03
   3.378336812512110E-03   3.420831058396235E-03   3.463859816092970E-03
   3.507429808933243E-03   3.551547844817087E-03   3.596220817277364E-03
   3.641455706556909E-03   3.687259580699202E-03   3.733639596652764E-03
   3.780603001389455E-03   3.828157133036810E-03   3.876309422024648E-03
   3.925067392246091E-03   3.974438662233178E-03   4.024430946347303E-03
   4.075052055984563E-03   4.126309900796328E-03   4.178212489925135E-03
   4.230767933256129E-03   4.283984442684262E-03   4.337870333397398E-03
   4.392434025175594E-03   4.447684043706699E-03   4.503629021918513E-03
   4.560277701327711E-03   4.617638933405698E-03   4.675721680961689E-03
   4.734535019543160E-03   4.794088138853916E-03   4.854390344190021E-03
   4.915451057893740E-03   4.977279820825817E-03   5.039886293856253E-03
   5.103280259373827E-03   5.167471622814638E-03   5.232470414209816E-03
   5.298286789752759E-03   5.364931033386048E-03   5.432413558408336E-03
   5.500744909101461E-03   5.569935762377986E-03   5.639996929449505E-03
   5.710939357515914E-03   5.782774131475925E-03   5.855512475659129E-03
   5.929165755579790E-03   6.003745479712740E-03   6.079263301291610E-03
   6.155731020129665E-03   6.233160584463541E-03   6.311564092820209E-03
   6.390953795907357E-03   6.471342098527612E-03   6.552741561516810E-03
   6.635164903706646E-03   6.718625003912039E-03   6.803134902943441E-03
   6.888707805644515E-03   6.975357082955406E-03   7.063096274001977E-03
   7.151939088211347E-03   7.241899407453983E-03   7.332991288212794E-03
   7.425228963779473E-03   7.518626846478483E-03   7.613199529919026E-03
   7.708961791275294E-03   7.805928593595454E-03   7.904115088139648E-03
   8.003536616747403E-03   8.104208714234857E-03   8.206147110822048E-03
   8.309367734590839E-03   8.413886713973704E-03   8.519720380273803E-03
   8.626885270216834E-03   8.735398128534870E-03   8.845275910582796E-03
   8.956535784987604E-03   9.069195136331023E-03   9.183271567865921E-03
   9.298782904266809E-03   9.415747194415010E-03   9.534182714218825E-03
   9.654107969469174E-03   9.775541698731195E-03   9.898502876272138E-03
   1.002301071502616E-02   1.014908466959638E-02   1.027674443929468E-02
   1.040600997121984E-02   1.053690146337418E-02   1.066943936781968E-02
   1.080364439387354E-02   1.093953751134411E-02   1.107713995380751E-02
   1.121647322192530E-02   1.135755908680412E-02   1.150041959339738E-02
   1.164507706394988E-02   1.179155410148573E-02   1.193987359334004E-02
   1.209005871473517E-02   1.224213293240189E-02   1.239612000824610E-02
   1.255204400306172E-02   1.270992928029014E-02   1.286980050982716E-02
   1.303168267187766E-02   1.319560106085878E-02   1.336158128935234E-02
   1.352964929210671E-02   1.369983133008926E-02   1.387215399458965E-02
   1.404664421137480E-02   1.422332924489612E-02   1.440223670254953E-02
   1.458339453898930E-02   1.476683106049593E-02   1.495257492939910E-02
   1.514065516855626E-02   1.533110116588740E-02   1.552394267896708E-02
   1.571920983967406E-02   1.591693315889945E-02   1.611714353131419E-02
   1.631987224019628E-02   1.652515096231893E-02   1.673301177290013E-02
   1.694348715061440E-02   1.715660998266777E-02   1.737241356993633E-02
   1.759093163216963E-02   1.781219831325949E-02   1.803624818657499E-02
   1.826311626036468E-02   1.849283798322665E-02   1.872544924964747E-02
   1.896098640561077E-02   1.919948625427636E-02   1.944098606173086E-02
   1.968552356281049E-02   1.993313696699732E-02   2.018386496438953E-02
   2.043774673174679E-02   2.069482193861184E-02   2.095513075350873E-02
   2.121871385021940E-02   2.148561241413897E-02   2.175586814871106E-02
   2.202952328194405E-02   2.230662057300926E-02   2.258720331892218E-02
   2.287131536130771E-02   2.315900109325046E-02   2.345030546623142E-02
   2.374527399715149E-02   2.404395277544375E-02   2.434638847027498E-02
   2.465262833783777E-02   2.496272022873454E-02   2.527671259545410E-02
   2.559465449994256E-02   2.591659562126937E-02   2.624258626338970E-02
   2.657267736300467E-02   2.690692049752015E-02   2.724536789310591E-02
   2.758807243285610E-02   2.793508766505227E-02   2.828646781153052E-02
   2.864226777615357E-02   2.900254315338980E-02   2.936735023699987E-02
   2.973674602883279E-02   3.011078824773263E-02   3.048953533855703E-02
   3.087304648130954E-02   3.126138160038645E-02   3.165460137394017E-02
   3.205276724336038E-02   3.245594142287422E-02   3.286418690926753E-02
   3.327756749172810E-02   3.369614776181297E-02   3.411999312354100E-02
   3.454916980361224E-02   3.498374486175613E-02   3.542378620120965E-02
   3.586936257932734E-02   3.632054361832485E-02   3.677739981615746E-02
   3.724000255753554E-02   3.770842412507860E-02   3.818273771060957E-02
   3.866301742659123E-02   3.914933831770631E-02   3.964177637258350E-02
   4.014040853567070E-02   4.064531271925788E-02   4.115656781565100E-02
   4.167425370949900E-02   4.219845129027605E-02   4.272924246492062E-02
   4.326671017063360E-02   4.381093838783760E-02   4.436201215329874E-02
   4.492001757341404E-02   4.548504183766569E-02   4.605717323224447E-02
   4.663650115384486E-02   4.722311612363325E-02   4.781710980139212E-02
   4.841857499984214E-02   4.902760569914419E-02   4.964429706158421E-02
   5.026874544644221E-02   5.090104842504879E-02   5.154130479603075E-02
   5.218961460074865E-02   5.284607913892856E-02   5.351080098449012E-02
   5.418388400157406E-02   5.486543336077123E-02   5.555555555555555E-02
   5.625435841892415E-02   5.696195114024608E-02   5.767844428232364E-02
   5.840394979866805E-02   5.913858105099219E-02   5.988245282692398E-02
   6.063568135794178E-02   6.139838433753601E-02   6.217068093959896E-02
   6.295269183704591E-02   6.374453922067069E-02   6.454634681823797E-02
   6.535823991381617E-02   6.618034536735327E-02   6.701279163449893E-02
   6.785570878667611E-02   6.870922853140474E-02   6.957348423288140E-02
   7.044861093281779E-02   7.133474537154119E-02   7.223202600936063E-02
   7.314059304820122E-02   7.406058845351131E-02   7.499215597644467E-02
   7.593544117632202E-02   7.689059144337509E-02   7.785775602177632E-02
   7.883708603295878E-02   7.982873449922918E-02   8.083285636767784E-02
   8.184960853438977E-02   8.287914986895949E-02   8.392164123931518E-02
   8.497724553685443E-02   8.604612770189629E-02   8.712845474945384E-02
   8.822439579533022E-02   8.933412208254354E-02   9.045780700808395E-02
   9.159562615000712E-02   9.274775729486906E-02   9.391438046550510E-02
   9.509567794915919E-02   9.629183432596647E-02   9.750303649779436E-02
   9.872947371744660E-02   9.997133761823385E-02   1.012288222439172E-01
   1.025021240790278E-01   1.037914420795679E-01   1.050969777040983E-01
   1.064189349452165E-01   1.077575203614308E-01   1.091129431094360E-01
   1.104854149767940E-01   1.118751504150265E-01   1.132823665731231E-01
   1.147072833314715E-01   1.161501233362143E-01   1.176111120340375E-01
   1.190904777073978E-01   1.205884515101913E-01   1.221052675038724E-01
   1.236411626940261E-01   1.251963770674005E-01   1.267711536294058E-01
   1.283657384420836E-01   1.299803806625551E-01   1.316153325819523E-01
   1.332708496648388E-01   1.349471905891272E-01   1.366446172864973E-01
   1.383633949833240E-01   1.401037922421194E-01   1.418660810034959E-01
   1.436505366286581E-01   1.454574379424279E-01   1.472870672768115E-01
   1.491397105151151E-01   1.510156571366136E-01   1.529152002617837E-01
   1.548386366981029E-01   1.567862669864278E-01   1.587583954479536E-01
   1.607553302317645E-01   1.627773833629836E-01   1.648248707915260E-01
   1.668981124414685E-01   1.689974322610370E-01   1.711231582732239E-01
   1.732756226270442E-01   1.754551616494316E-01   1.776621158977930E-01
   1.798968302132202E-01   1.821596537743707E-01   1.844509401520306E-01
   1.867710473643572E-01   1.891203379328232E-01   1.914991789388598E-01
   1.939079420812134E-01   1.963470037340263E-01   1.988167450056434E-01
   2.013175517981634E-01   2.038498148677359E-01   2.064139298856169E-01
   2.090102974999953E-01   2.116393233985924E-01   2.143014183720541E-01
   2.169969983781364E-01   2.197264846066987E-01   2.224903035455183E-01
   2.252888870469265E-01   2.281226723952895E-01   2.309921023753339E-01
   2.338976253413311E-01   2.368396952871568E-01   2.398187719172247E-01
   2.428353207183198E-01   2.458898130323299E-01   2.489827261298925E-01
   2.521145432849726E-01   2.552857538503717E-01   2.584968533341927E-01
   2.617483434772636E-01   2.650407323315335E-01   2.683745343394602E-01
   2.717502704143893E-01   2.751684680219507E-01   2.786296612624757E-01
   2.821343909544490E-01   2.856832047190162E-01   2.892766570655472E-01
   2.929153094782828E-01   2.965997305040655E-01   3.003304958411759E-01
   3.041081884292892E-01   3.079333985405569E-01   3.118067238718419E-01
   3.157287696381082E-01   3.197001486669850E-01   3.237214814945266E-01
   3.277933964621677E-01   3.319165298149068E-01   3.360915258007194E-01
   3.403190367712214E-01   3.445997232836040E-01   3.489342542038426E-01
   3.533233068112127E-01   3.577675669041147E-01   3.622677289072285E-01
   3.668244959800241E-01   3.714385801266262E-01   3.761107023070707E-01
   3.808415925499546E-01   3.856319900665020E-01   3.904826433660722E-01
   3.953943103731110E-01   4.003677585455814E-01   4.054037649948798E-01
   4.105031166072584E-01   4.156666101667825E-01   4.208950524798249E-01
   4.261892605011349E-01   4.315500614614877E-01   4.369782929969384E-01
   4.424748032797100E-01   4.480404511507153E-01   4.536761062537581E-01
   4.593826491714152E-01   4.651609715626258E-01   4.710119763020212E-01
   4.769365776209942E-01   4.829357012505556E-01   4.890102845659785E-01
   4.951612767332632E-01   5.013896388574517E-01   5.076963441327960E-01
   5.140823779948271E-01   5.205487382743298E-01   5.270964353532515E-01
   5.337264923225840E-01   5.404399451422159E-01   5.472378428028101E-01
   5.541212474897070E-01   5.610912347488919E-01   5.681488936550561E-01
   5.752953269817609E-01   5.825316513737540E-01   5.898589975214450E-01
   5.972785103375753E-01   6.047913491361193E-01   6.123986878134224E-01
   6.201017150316314E-01   6.279016344044216E-01   6.357996646850623E-01
   6.437970399568557E-01   6.518950098259563E-01   6.600948396166331E-01
   6.683978105689744E-01   6.768052200390818E-01   6.853183817017926E-01
   6.939386257559340E-01   7.026672991321790E-01   7.115057657035023E-01
   7.204554064982852E-01   7.295176199161127E-01   7.386938219462660E-01
   7.479854463889839E-01   7.573939450794869E-01   7.669207881148385E-01
   7.765674640836471E-01   7.863354802986560E-01   7.962263630322749E-01
   8.062416577550514E-01   8.163829293771634E-01   8.266517624929360E-01
   8.370497616284329E-01   8.475785514921766E-01   8.582397772290015E-01
   8.690351046771206E-01   8.799662206284129E-01   8.910348330919819E-01
   9.022426715610476E-01   9.135914872831701E-01   9.250830535338969E-01
   9.367191658938361E-01   9.485016425292145E-01   9.604323244759814E-01
   9.725130759274605E-01   9.847457845256469E-01   9.971323616561476E-01
   1.009674742746837E+00   1.022374887570282E+00   1.035234780549945E+00
   1.048256431070271E+00   1.061441873790648E+00   1.074793168963323E+00
   1.088312402755334E+00   1.102001687574463E+00   1.115863162399315E+00
   1.129898993113535E+00   1.144111372844224E+00   1.158502522304635E+00
   1.173074690141146E+00   1.187830153284630E+00   1.202771217306226E+00
   1.217900216777582E+00   1.233219515635648E+00   1.248731507552035E+00
   1.264438616307040E+00   1.280343296168367E+00   1.296448032274596E+00
   1.312755341023514E+00   1.329267770465286E+00   1.345987900700610E+00
   1.362918344283854E+00   1.380061746631269E+00   1.397420786434355E+00
   1.414998176078394E+00   1.432796662066281E+00   1.450819025447666E+00
   1.469068082253489E+00   1.487546683936009E+00   1.506257717814328E+00
   1.525204107525561E+00   1.544388813481649E+00   1.563814833331925E+00
   1.583485202431518E+00   1.603402994315613E+00   1.623571321179719E+00
   1.643993334365943E+00   1.664672224855390E+00   1.685611223766776E+00
   1.706813602861274E+00   1.728282675053759E+00   1.750021794930443E+00
   1.772034359273028E+00   1.794323807589485E+00   1.816893622651454E+00
   1.839747331038462E+00   1.862888503688942E+00   1.886320756458197E+00
   1.910047750683401E+00   1.934073193755669E+00   1.958400839699363E+00
   1.983034489758662E+00   2.007977992991496E+00   2.033235246871002E+00
   2.058810197894478E+00   2.084706842200056E+00   2.110929226191100E+00
   2.137481447168452E+00   2.164367653970668E+00   2.191592047622253E+00
   2.219158881990107E+00   2.247072464448191E+00   2.275337156550544E+00
   2.303957374712823E+00   2.332937590902334E+00   2.362282333336821E+00
   2.391996187191998E+00   2.422083795317973E+00   2.452549858964738E+00
   2.483399138516714E+00   2.514636454236598E+00   2.546266687018528E+00
   2.578294779150721E+00   2.610725735087742E+00   2.643564622232428E+00
   2.676816571727712E+00   2.710486779258359E+00   2.744580505862788E+00
   2.779103078755156E+00   2.814059892157704E+00   2.849456408143650E+00
   2.885298157490638E+00   2.921590740544914E+00   2.958339828096427E+00
   2.995551162264865E+00   3.033230557396902E+00   3.071383900974693E+00
   3.110017154535786E+00   3.149136354604659E+00   3.188747613635902E+00
   3.228857120969332E+00   3.269471143797081E+00   3.310596028142833E+00
   3.352238199853447E+00   3.394404165602965E+00   3.437100513909327E+00
   3.480333916163829E+00   3.524111127673519E+00   3.568438988716775E+00
   3.613324425612056E+00   3.658774451800205E+00   3.704796168940289E+00
   3.751396768019231E+00   3.798583530475457E+00   3.846363829336591E+00
   3.894745130371548E+00   3.943734993257052E+00   3.993341072758837E+00
   4.043571119927764E+00   4.094432983310880E+00   4.145934610177829E+00
   4.198084047762594E+00   4.250889444520883E+00   4.304359051403387E+00
   4.358501223144953E+00   4.413324419570074E+00   4.468837206914739E+00
   4.525048259164897E+00   4.581966359411840E+00   4.639600401224516E+00
   4.697959390039222E+00   4.757052444566703E+00   4.816888798216939E+00
   4.877477800541940E+00   4.938828918696574E+00   5.000951738917879E+00
   5.063855968022914E+00   5.127551434925438E+00   5.192048092171763E+00
   5.257356017495786E+00   5.323485415393716E+00   5.390446618718524E+00
   5.458250090294448E+00   5.526906424551886E+00   5.596426349182729E+00
   5.666820726816649E+00   5.738100556718381E+00   5.810276976506346E+00
   5.883361263893002E+00   5.957364838446920E+00   6.032299263377200E+00
   6.108176247340200E+00   6.185007646269019E+00   6.262805465226074E+00
   6.341581860278835E+00   6.421349140399315E+00   6.502119769387328E+00
   6.583906367817963E+00   6.666721715013642E+00   6.750578751040831E+00
   6.835490578732030E+00   6.921470465733081E+00   7.008531846576232E+00
   7.096688324779390E+00   7.185953674971610E+00   7.276341845045478E+00
   7.367866958336482E+00   7.460543315829751E+00   7.554385398394729E+00
   7.649407869047707E+00   7.745625575243064E+00   7.843053551193167E+00
   7.941707020217446E+00   8.041601397121175E+00   8.142752290603955E+00
   8.245175505698700E+00   8.348887046241167E+00   8.453903117370535E+00
   8.560240128061606E+00   8.667914693688617E+00   8.776943638621525E+00
   8.887343998854815E+00   8.999133024669353E+00   9.112328183327888E+00
   9.226947161804228E+00   9.343007869546970E+00   9.460528441277841E+00
   9.579527239825241E+00   9.700022858993581E+00   9.822034126468470E+00
   9.945580106758705E+00   1.007068010417508E+01   1.019735366584667E+01
   1.032562058477524E+01   1.045550090292780E+01   1.058701491436833E+01
   1.072018316842870E+01   1.085502647291950E+01   1.099156589738143E+01
   1.112982277637732E+01   1.126981871282583E+01   1.141157558137685E+01
   1.155511553182948E+01   1.170046099259304E+01   1.184763467419145E+01
   1.199665957281189E+01   1.214755897389801E+01   1.230035645578818E+01
   1.245507589339985E+01   1.261174146195989E+01   1.277037764078216E+01
   1.293100921709235E+01   1.309366128990103E+01   1.325835927392555E+01
   1.342512890356093E+01   1.359399623690113E+01   1.376498765981057E+01
   1.393812989004692E+01   1.411344998143596E+01   1.429097532809861E+01
   1.447073366873149E+01   1.465275309094107E+01   1.483706203563234E+01
   1.502368930145294E+01   1.521266404929281E+01   1.540401580684078E+01
   1.559777447319831E+01   1.579397032355116E+01   1.599263401390019E+01
   1.619379658585112E+01   1.639748947146513E+01   1.660374449817003E+01
   1.681259389373333E+01   1.702407029129803E+01   1.723820673448147E+01
   1.745503668253857E+01   1.767459401558989E+01   1.789691303991536E+01
   1.812202849331491E+01   1.834997555053605E+01   1.858078982877028E+01
   1.881450739321820E+01   1.905116476272469E+01   1.929079891548528E+01
   1.953344729482382E+01   1.977914781504328E+01   2.002793886734987E+01
   2.027985932585160E+01   2.053494855363273E+01   2.079324640890401E+01
   2.105479325123086E+01   2.131962994783957E+01   2.158779788000271E+01
   2.185933894950536E+01   2.213429558519200E+01   2.241271074959640E+01
   2.269462794565447E+01   2.298009122350160E+01   2.326914518735579E+01
   2.356183500248692E+01   2.385820640227411E+01   2.415830569535159E+01
   2.446217977284438E+01   2.476987611569542E+01   2.508144280208420E+01
   2.539692851493939E+01   2.571638254954553E+01   2.603985482124539E+01
   2.636739587323961E+01   2.669905688448385E+01   2.703488967768596E+01
   2.737494672740316E+01   2.771928116824122E+01   2.806794680315720E+01
   2.842099811186579E+01   2.877849025935233E+01   2.914047910449225E+01
   2.950702120877895E+01   2.987817384516208E+01   3.025399500699608E+01
   3.063454341710215E+01   3.101987853694366E+01   3.141006057591695E+01
   3.180515050075955E+01   3.220521004507592E+01   3.261030171898383E+01
   3.302048881888157E+01   3.343583543733790E+01   3.385640647310711E+01
   3.428226764126909E+01   3.471348548349783E+01   3.515012737845856E+01
   3.559226155233560E+01   3.603995708949328E+01   3.649328394326999E+01
   3.695231294690899E+01   3.741711582462608E+01   3.788776520281642E+01
   3.836433462140302E+01   3.884689854532699E+01   3.933553237618329E+01
   3.983031246400222E+01   4.033131611917896E+01   4.083862162455411E+01
   4.135230824764484E+01   4.187245625303118E+01   4.239914691489732E+01
   4.293246252973055E+01   4.347248642918092E+01   4.401930299308123E+01
   4.457299766263216E+01   4.513365695375244E+01   4.570136847059680E+01
   4.627622091924493E+01   4.685830412156130E+01   4.744770902923064E+01
   4.804452773796899E+01   4.864885350191366E+01   4.926078074819495E+01
   4.988040509168991E+01   5.050782334996291E+01   5.114313355839339E+01
   5.178643498549380E+01   5.243782814842110E+01   5.309741482868209E+01
   5.376529808803759E+01   5.444158228460579E+01   5.512637308916813E+01
   5.581977750168122E+01   5.652190386799506E+01   5.723286189678299E+01
   5.795276267668356E+01   5.868171869365806E+01   5.941984384856745E+01
   6.016725347496867E+01   6.092406435713659E+01   6.169039474831139E+01
   6.246636438917559E+01   6.325209452656451E+01   6.404770793241047E+01
   6.485332892292696E+01   6.566908337803289E+01   6.649509876102131E+01
   6.733150413847657E+01   6.817843020044037E+01   6.903600928083310E+01
   6.990437537813092E+01   7.078366417630301E+01   7.167401306601325E+01