<UPF version="2.0.1">
  <PP_INFO>
    Generated using "atomic" code by A. Dal Corso  v.7.2
    Author: ADC
    Generation date: 22Sep2023
    Pseudopotential type: PAW
    Element:  B
    Functional:  SLA  PW   PSX  PSC
    Suggested minimum cutoff for wavefunctions:  43. Ry
    Suggested minimum cutoff for charge density: 324. Ry
    The Pseudo was generated with a Scalar-Relativistic Calculation
    Local Potential by smoothing AE potential with Bessel fncs, cutoff radius:   1.2000
    Valence configuration: 
    nl pn  l   occ       Rcut    Rcut US       E pseu
    2S  1  0  2.00      1.000      1.200    -0.688035
    2P  2  1  1.00      1.000      1.400    -0.261311
    Generation configuration:
    2S  1  0  2.00      1.000      1.200    -0.688030
    2S  1  0  0.00      1.000      1.200     3.000000
    2P  2  1  1.00      1.000      1.400    -0.261310
    2P  2  1  0.00      1.000      1.400     1.500000
    Pseudization used: troullier-martins
    <PP_INPUTFILE>
@input
title='B',
zed=5.,
rel=1,
config='[He] 2s2 2p1',
iswitch=3,
dft='PBESOL'
/
@inputp
lpaw=.true.,
pseudotype=3,
file_pseudopw='B.pbesol-n-kjpaw_psl.1.0.0.UPF',
author='ADC',
lloc=-1,
rcloc=1.2
which_augfun='PSQ',
rmatch_augfun_nc=.true.,
nlcc=.true.,
new_core_ps=.true.,
rcore=0.9,
tm=.true.
/
4
2S  1  0  2.00  0.00  1.00  1.20  0.0
2S  1  0  0.00  3.00  1.00  1.20  0.0
2P  2  1  1.00  0.00  1.00  1.40  0.0
2P  2  1  0.00  1.50  1.00  1.40  0.0
    </PP_INPUTFILE>
  </PP_INFO>
    <!-- END OF HUMAN READABLE SECTION -->
  <PP_HEADER generated="Generated using 'atomic' code by A. Dal Corso  v.7.2" author="ADC" date="22Sep2023" comment="" element=" B" pseudo_type="PAW" relativistic="scalar" is_ultrasoft="true" is_paw="true" is_coulomb="false" has_so="false" has_wfc="true" has_gipaw="false" paw_as_gipaw="false" core_correction="true" functional=" SLA  PW   PSX  PSC" z_valence="3.0000000000000000" total_psenergy="-10.686109136932702" wfc_cutoff="42.554796434410804" rho_cutoff="324.42106312865047" l_max="1" l_max_rho="2" l_local="-1" mesh_size="1059" number_of_wfc="2" number_of_proj="4"/>
  <PP_MESH mesh="1059" dx="1.2500000000000001E-002" xmin="-7.0000000000000000" rmax="100.00000000000000" zmesh="5.0000000000000000">
    <PP_R>
   1.823763931109032E-04   1.846704057338044E-04   1.869932734833164E-04
   1.893453593122508E-04   1.917270307388040E-04   1.941386599039818E-04
   1.965806236297477E-04   1.990533034779023E-04   2.015570858097021E-04
   2.040923618462309E-04   2.066595277295274E-04   2.092589845844837E-04
   2.118911385815220E-04   2.145564010000594E-04   2.172551882927716E-04
   2.199879221506637E-04   2.227550295689607E-04   2.255569429138265E-04
   2.283940999899215E-04   2.312669441088115E-04   2.341759241582349E-04
   2.371214946722426E-04   2.401041159022202E-04   2.431242538888029E-04
   2.461823805346962E-04   2.492789736784099E-04   2.524145171689229E-04
   2.555895009412849E-04   2.588044210931696E-04   2.620597799623920E-04
   2.653560862053983E-04   2.686938548767454E-04   2.720736075095788E-04
   2.754958721971234E-04   2.789611836751998E-04   2.824700834057763E-04
   2.860231196615749E-04   2.896208476117391E-04   2.932638294085806E-04
   2.969526342754174E-04   3.006878385955145E-04   3.044700260021463E-04
   3.082997874697901E-04   3.121777214064664E-04   3.161044337472434E-04
   3.200805380489129E-04   3.241066555858613E-04   3.281834154471452E-04
   3.323114546347868E-04   3.364914181633082E-04   3.407239591605148E-04
   3.450097389695485E-04   3.493494272522239E-04   3.537437020936641E-04
   3.581932501082540E-04   3.626987665469231E-04   3.672609554057814E-04
   3.718805295361202E-04   3.765582107557954E-04   3.812947299620153E-04
   3.860908272455419E-04   3.909472520063334E-04   3.958647630706393E-04
   4.008441288095678E-04   4.058861272591468E-04   4.109915462418918E-04
   4.161611834899058E-04   4.213958467695268E-04   4.266963540075416E-04
   4.320635334189909E-04   4.374982236365770E-04   4.430012738417034E-04
   4.485735438971607E-04   4.542159044814814E-04   4.599292372249872E-04
   4.657144348475427E-04   4.715724012980466E-04   4.775040518956747E-04
   4.835103134729007E-04   4.895921245203166E-04   4.957504353332717E-04
   5.019862081603597E-04   5.083004173537717E-04   5.146940495215400E-04
   5.211681036816996E-04   5.277235914183843E-04   5.343615370398901E-04
   5.410829777387253E-04   5.478889637536737E-04   5.547805585338977E-04
   5.617588389051026E-04   5.688248952377935E-04   5.759798316176486E-04
   5.832247660180335E-04   5.905608304746893E-04   5.979891712626121E-04
   6.055109490751630E-04   6.131273392054286E-04   6.208395317298617E-04
   6.286487316942361E-04   6.365561593019333E-04   6.445630501046053E-04
   6.526706551952296E-04   6.608802414035964E-04   6.691930914942544E-04
   6.776105043669423E-04   6.861337952595469E-04   6.947642959536107E-04
   7.035033549824257E-04   7.123523378417460E-04   7.213126272031461E-04
   7.303856231300687E-04   7.395727432965864E-04   7.488754232089160E-04
   7.582951164297215E-04   7.678332948052327E-04   7.774914486952261E-04
   7.872710872058967E-04   7.971737384256581E-04   8.072009496639116E-04
   8.173542876928133E-04   8.276353389920874E-04   8.380457099969159E-04
   8.485870273489480E-04   8.592609381504679E-04   8.700691102217538E-04
   8.810132323616813E-04   8.920950146116003E-04   9.033161885225332E-04
   9.146785074257346E-04   9.261837467066491E-04   9.378337040823222E-04
   9.496301998822955E-04   9.615750773330371E-04   9.736702028459526E-04
   9.859174663090103E-04   9.983187813820435E-04   1.010876085795763E-03
   1.023591341654530E-03   1.036466535742945E-03   1.049503679836277E-03
   1.062704811014815E-03   1.076071991982164E-03   1.089607311387545E-03
   1.103312884152154E-03   1.117190851799620E-03   1.131243382790622E-03
   1.145472672861717E-03   1.159880945368428E-03   1.174470451632650E-03
   1.189243471294419E-03   1.204202312668112E-03   1.219349313103128E-03
   1.234686839349100E-03   1.250217287925712E-03   1.265943085497149E-03
   1.281866689251277E-03   1.297990587283577E-03   1.314317298985923E-03
   1.330849375440235E-03   1.347589399817093E-03   1.364539987779365E-03
   1.381703787890906E-03   1.399083482030402E-03   1.416681785810425E-03
   1.434501449001740E-03   1.452545255962978E-03   1.470816026075687E-03
   1.489316614184868E-03   1.508049911045055E-03   1.527018843771992E-03
   1.546226376300014E-03   1.565675509845155E-03   1.585369283374099E-03
   1.605310774079032E-03   1.625503097858442E-03   1.645949409804006E-03
   1.666652904693562E-03   1.687616817490306E-03   1.708844423848269E-03
   1.730339040624127E-03   1.752104026395486E-03   1.774142781985652E-03
   1.796458750995023E-03   1.819055420339165E-03   1.841936320793628E-03
   1.865105027545665E-03   1.888565160752842E-03   1.912320386108701E-03
   1.936374415415539E-03   1.960731007164366E-03   1.985393967122202E-03
   2.010367148926717E-03   2.035654454688374E-03   2.061259835600150E-03
   2.087187292554901E-03   2.113440876770531E-03   2.140024690422986E-03
   2.166942887287230E-03   2.194199673386298E-03   2.221799307648461E-03
   2.249746102572733E-03   2.278044424902675E-03   2.306698696308724E-03
   2.335713394079091E-03   2.365093051819324E-03   2.394842260160724E-03
   2.424965667477620E-03   2.455467980613687E-03   2.486353965617419E-03
   2.517628448486800E-03   2.549296315923414E-03   2.581362516095974E-03
   2.613832059413496E-03   2.646710019308188E-03   2.680001533028165E-03
   2.713711802440187E-03   2.747846094842429E-03   2.782409743787524E-03
   2.817408149915947E-03   2.852846781799851E-03   2.888731176797576E-03
   2.925066941918845E-03   2.961859754700880E-03   2.999115364095543E-03
   3.036839591367589E-03   3.075038331004286E-03   3.113717551636418E-03
   3.152883296970897E-03   3.192541686735125E-03   3.232698917633175E-03
   3.273361264314086E-03   3.314535080352251E-03   3.356226799240192E-03
   3.398442935393817E-03   3.441190085170276E-03   3.484474927898703E-03
   3.528304226923832E-03   3.572684830662807E-03   3.617623673675263E-03
   3.663127777746836E-03   3.709204252986377E-03   3.755860298936882E-03
   3.803103205700451E-03   3.850940355077386E-03   3.899379221719599E-03
   3.948427374298557E-03   3.998092476687886E-03   4.048382289160878E-03
   4.099304669603052E-03   4.150867574739948E-03   4.203079061380406E-03
   4.255947287675435E-03   4.309480514392955E-03   4.363687106208555E-03
   4.418575533012488E-03   4.474154371233120E-03   4.530432305176994E-03
   4.587418128385786E-03   4.645120745010315E-03   4.703549171201821E-03
   4.762712536520776E-03   4.822620085363375E-03   4.883281178406007E-03
   4.944705294067880E-03   5.006902029992029E-03   5.069881104544989E-03
   5.133652358335287E-03   5.198225755751069E-03   5.263611386517063E-03
   5.329819467271097E-03   5.396860343160497E-03   5.464744489458514E-03
   5.533482513201115E-03   5.603085154844365E-03   5.673563289942620E-03
   5.744927930847887E-03   5.817190228430495E-03   5.890361473821458E-03
   5.964453100176742E-03   6.039476684463700E-03   6.115443949270019E-03
   6.192366764635379E-03   6.270257149906177E-03   6.349127275613591E-03
   6.428989465375214E-03   6.509856197820687E-03   6.591740108541473E-03
   6.674653992065216E-03   6.758610803854911E-03   6.843623662333207E-03
   6.929705850932205E-03   7.016870820169008E-03   7.105132189747393E-03
   7.194503750685933E-03   7.284999467472847E-03   7.376633480248003E-03
   7.469420107012324E-03   7.563373845865017E-03   7.658509377268932E-03
   7.754841566344402E-03   7.852385465191963E-03   7.951156315244264E-03
   8.051169549647571E-03   8.152440795673245E-03   8.254985877159509E-03
   8.358820816983983E-03   8.463961839567264E-03   8.570425373408037E-03
   8.678228053650075E-03   8.787386724681484E-03   8.897918442766705E-03
   9.009840478711565E-03   9.123170320561881E-03   9.237925676336025E-03
   9.354124476791795E-03   9.471784878228185E-03   9.590925265322296E-03
   9.711564254001995E-03   9.833720694354717E-03   9.957413673572790E-03
   1.008266251893588E-02   1.020948680083088E-02   1.033790633580988E-02
   1.046794118968648E-02   1.059961168067116E-02   1.073293838254603E-02
   1.086794212787950E-02   1.100464401128145E-02   1.114306539269928E-02
   1.128322790075547E-02   1.142515343612706E-02   1.156886417496770E-02
   1.171438257237271E-02   1.186173136588774E-02   1.201093357906159E-02
   1.216201252504360E-02   1.231499181022645E-02   1.246989533793469E-02
   1.262674731215968E-02   1.278557224134151E-02   1.294639494219851E-02
   1.310924054360487E-02   1.327413449051713E-02   1.344110254794995E-02
   1.361017080500204E-02   1.378136567893252E-02   1.395471391928873E-02
   1.413024261208592E-02   1.430797918403944E-02   1.448795140685029E-02
   1.467018740154443E-02   1.485471564286678E-02   1.504156496373049E-02
   1.523076455972206E-02   1.542234399366334E-02   1.561633320023063E-02
   1.581276249063214E-02   1.601166255734412E-02   1.621306447890665E-02
   1.641699972477976E-02   1.662350016026051E-02   1.683259805146208E-02
   1.704432607035538E-02   1.725871729987410E-02   1.747580523908408E-02
   1.769562380841746E-02   1.791820735497294E-02   1.814359065788251E-02
   1.837180893374578E-02   1.860289784213270E-02   1.883689349115534E-02
   1.907383244310993E-02   1.931375172018977E-02   1.955668881027001E-02
   1.980268167276526E-02   2.005176874456075E-02   2.030398894601822E-02
   2.055938168705729E-02   2.081798687331333E-02   2.107984491237287E-02
   2.134499672008724E-02   2.161348372696586E-02   2.188534788464980E-02
   2.216063167246679E-02   2.243937810406875E-02   2.272163073415275E-02
   2.300743366526649E-02   2.329683155469940E-02   2.358986962146051E-02
   2.388659365334393E-02   2.418705001408334E-02   2.449128565059639E-02
   2.479934810032026E-02   2.511128549863946E-02   2.542714658640712E-02
   2.574698071756085E-02   2.607083786683434E-02   2.639876863756606E-02
   2.673082426960610E-02   2.706705664732254E-02   2.740751830770850E-02
   2.775226244859106E-02   2.810134293694364E-02   2.845481431730273E-02
   2.881273182029066E-02   2.917515137124548E-02   2.954212959895937E-02
   2.991372384452702E-02   3.028999217030533E-02   3.067099336898569E-02
   3.105678697278060E-02   3.144743326272553E-02   3.184299327809807E-02
   3.224352882595537E-02   3.264910249079168E-02   3.305977764431731E-02
   3.347561845536051E-02   3.389668989989404E-02   3.432305777118777E-02
   3.475478869008903E-02   3.519195011543230E-02   3.563461035457970E-02
   3.608283857409417E-02   3.653670481054695E-02   3.699627998146086E-02
   3.746163589639141E-02   3.793284526814707E-02   3.840998172415085E-02
   3.889311981794473E-02   3.938233504083881E-02   3.987770383370703E-02
   4.037930359893109E-02   4.088721271249482E-02   4.140151053623056E-02
   4.192227743021956E-02   4.244959476534862E-02   4.298354493602413E-02
   4.352421137304660E-02   4.407167855664680E-02   4.462603202968596E-02
   4.518735841102218E-02   4.575574540904450E-02   4.633128183537778E-02
   4.691405761875957E-02   4.750416381909163E-02   4.810169264166844E-02
   4.870673745158416E-02   4.931939278832132E-02   4.993975438052274E-02
   5.056791916094929E-02   5.120398528162602E-02   5.184805212917833E-02
   5.250022034036148E-02   5.316059181778535E-02   5.382926974583677E-02
   5.450635860680253E-02   5.519196419719465E-02   5.588619364428149E-02
   5.658915542282661E-02   5.730095937203802E-02   5.802171671273108E-02
   5.875154006470659E-02   5.949054346434814E-02   6.023884238244046E-02
   6.099655374221186E-02   6.176379593760398E-02   6.254068885177078E-02
   6.332735387581068E-02   6.412391392773417E-02   6.493049347166995E-02
   6.574721853731283E-02   6.657421673961593E-02   6.741161729873089E-02
   6.825955106019879E-02   6.911815051539491E-02   6.998754982223108E-02
   7.086788482611776E-02   7.175929308119036E-02   7.266191387180229E-02
   7.357588823428847E-02   7.450135897900260E-02   7.543847071263141E-02
   7.638736986078982E-02   7.734820469090030E-02   7.832112533535980E-02
   7.930628381499859E-02   8.030383406283335E-02   8.131393194811987E-02
   8.233673530070776E-02   8.337240393570168E-02   8.442109967843311E-02
   8.548298638974536E-02   8.655822999159750E-02   8.764699849298992E-02
   8.874946201621597E-02   8.986579282344434E-02   9.099616534363474E-02
   9.214075619979321E-02   9.329974423656974E-02   9.447331054820293E-02
   9.566163850681683E-02   9.686491379107252E-02   9.808332441518128E-02
   9.931706075828198E-02   1.005663155941882E-01   1.018312841215099E-01
   1.031121639941529E-01   1.044091553522033E-01   1.057224608531995E-01
   1.070522857037981E-01   1.083988376918374E-01   1.097623272188053E-01
   1.111429673327143E-01   1.125409737613912E-01   1.139565649461846E-01
   1.153899620760973E-01   1.168413891223472E-01   1.183110728733631E-01
   1.197992429702212E-01   1.213061319425267E-01   1.228319752447476E-01
   1.243770112930041E-01   1.259414815023221E-01   1.275256303243548E-01
   1.291297052855784E-01   1.307539570259695E-01   1.323986393381668E-01
   1.340640092071279E-01   1.357503268502830E-01   1.374578557581944E-01
   1.391868627357284E-01   1.409376179437427E-01   1.427103949413006E-01
   1.445054707284145E-01   1.463231257893284E-01   1.481636441363436E-01
   1.500273133541964E-01   1.519144246449938E-01   1.538252728737142E-01
   1.557601566142810E-01   1.577193781962153E-01   1.597032437518754E-01
   1.617120632642906E-01   1.637461506155965E-01   1.658058236360801E-01
   1.678914041538415E-01   1.700032180450797E-01   1.721415952850117E-01
   1.743068699994317E-01   1.764993805169191E-01   1.787194694217032E-01
   1.809674836071920E-01   1.832437743301756E-01   1.855486972657107E-01
   1.878826125626952E-01   1.902458849001428E-01   1.926388835441644E-01
   1.950619824056666E-01   1.975155600987764E-01   2.000000000000000E-01
   2.025156903081269E-01   2.050630241048859E-01   2.076423994163651E-01
   2.102542192752050E-01   2.128988917835719E-01   2.155768301769264E-01
   2.182884528885904E-01   2.210341836151296E-01   2.238144513825563E-01
   2.266296906133653E-01   2.294803411944145E-01   2.323668485456567E-01
   2.352896636897382E-01   2.382492433224718E-01   2.412460498841961E-01
   2.442805516320340E-01   2.473532227130570E-01   2.504645432383730E-01
   2.536149993581441E-01   2.568050833375483E-01   2.600352936336983E-01
   2.633061349735244E-01   2.666181184326407E-01   2.699717615152008E-01
   2.733675882347593E-01   2.768061291961503E-01   2.802879216783948E-01
   2.838135097186516E-01   2.873834441972251E-01   2.909982829236403E-01
   2.946585907238032E-01   2.983649395282542E-01   3.021179084615347E-01
   3.059180839326759E-01   3.097660597268266E-01   3.136624370980338E-01
   3.176078248631888E-01   3.216028394971567E-01   3.256481052291022E-01
   3.297442541400256E-01   3.338919262615286E-01   3.380917696758184E-01
   3.423444406169731E-01   3.466506035734793E-01   3.510109313920597E-01
   3.554261053828077E-01   3.598968154256418E-01   3.644237600781020E-01
   3.690076466845002E-01   3.736491914864445E-01   3.783491197347540E-01
   3.831081658027793E-01   3.879270733011510E-01   3.928065951939697E-01
   3.977474939164584E-01   4.027505414940954E-01   4.078165196632432E-01
   4.129462199932975E-01   4.181404440103714E-01   4.234000033225350E-01
   4.287257197466319E-01   4.341184254366886E-01   4.395789630139406E-01
   4.451081856984939E-01   4.507069574426417E-01   4.563761530658608E-01
   4.621166583915010E-01   4.679293703851984E-01   4.738151972950283E-01
   4.797750587934196E-01   4.858098861208577E-01   4.919206222313902E-01
   4.981082219399665E-01   5.043736520716300E-01   5.107178916125854E-01
   5.171419318631694E-01   5.236467765927404E-01   5.302334421965216E-01
   5.369029578544144E-01   5.436563656918090E-01   5.504947209424215E-01
   5.574190921131703E-01   5.644305611511399E-01   5.715302236126332E-01
   5.787191888343522E-01   5.859985801067410E-01   5.933695348494937E-01
   6.008332047892864E-01   6.083907561397331E-01   6.160433697836062E-01
   6.237922414573591E-01   6.316385819379537E-01   6.395836172320549E-01
   6.476285887675927E-01   6.557747535877347E-01   6.640233845473102E-01
   6.723757705116861E-01   6.808332165581635E-01   6.893970441798954E-01
   6.980685914923683E-01   7.068492134424946E-01   7.157402820203160E-01
   7.247431864733882E-01   7.338593335238494E-01   7.430901475882208E-01
   7.524370709999829E-01   7.619015642349325E-01   7.714851061393946E-01
   7.811891941612910E-01   7.910153445841155E-01   8.009650927638658E-01
   8.110399933689353E-01   8.212416206230422E-01   8.315715685512022E-01
   8.420314512287920E-01   8.526229030337644E-01   8.633475789020089E-01
   8.742071545859513E-01   8.852033269163876E-01   8.963378140676129E-01
   9.076123558259015E-01   9.190287138613380E-01   9.305886720030937E-01
   9.422940365181489E-01   9.541466363935205E-01   9.661483236220567E-01
   9.783009734918012E-01   9.906064848790226E-01   1.003066780544912E+00
   1.015683807436016E+00   1.028459536988458E+00   1.041395965435970E+00
   1.054495114121818E+00   1.067759029814636E+00   1.081189785028233E+00
   1.094789478345441E+00   1.108560234746005E+00   1.122504205938631E+00
   1.136623570697190E+00   1.150920535201146E+00   1.165397333380296E+00
   1.180056227263804E+00   1.194899507333664E+00   1.209929492882590E+00
   1.225148532376397E+00   1.240559003820974E+00   1.256163315133833E+00
   1.271963904520366E+00   1.287963240854813E+00   1.304163824066022E+00
   1.320568185528087E+00   1.337178888455854E+00   1.353998528305455E+00
   1.371029733179836E+00   1.388275164239407E+00   1.405737516117860E+00
   1.423419517343199E+00   1.441323930764093E+00   1.459453553981567E+00
   1.477811219786130E+00   1.496399796600417E+00   1.515222188927370E+00
   1.534281337804086E+00   1.553580221261356E+00   1.573121854788978E+00
   1.592909291806956E+00   1.612945624142575E+00   1.633233982513529E+00
   1.653777537017095E+00   1.674579497625453E+00   1.695643114687276E+00
   1.716971679435579E+00   1.738568524502000E+00   1.760437024437522E+00
   1.782580596239747E+00   1.805002699886826E+00   1.827706838878066E+00
   1.850696560781378E+00   1.873975457787587E+00   1.897547167271705E+00
   1.921415372361302E+00   1.945583802511977E+00   1.970056234090116E+00
   1.994836490962945E+00   2.019928445096011E+00   2.045336017158202E+00
   2.071063177134339E+00   2.097113944945514E+00   2.123492391077202E+00
   2.150202637215271E+00   2.177248856890030E+00   2.204635276128321E+00
   2.232366174113873E+00   2.260445883855918E+00   2.288878792866224E+00
   2.317669343844680E+00   2.346822035373443E+00   2.376341422619879E+00
   2.406232118048308E+00   2.436498792140695E+00   2.467146174126453E+00
   2.498179052721363E+00   2.529602276875845E+00   2.561420756532608E+00
   2.593639463393827E+00   2.626263431698006E+00   2.659297759006558E+00
   2.692747607000342E+00   2.726618202286153E+00   2.760914837213419E+00
   2.795642870701129E+00   2.830807729075162E+00   2.866414906916190E+00
   2.902469967918185E+00   2.938978545757788E+00   2.975946344974570E+00
   3.013379141862358E+00   3.051282785371836E+00   3.089663198024405E+00
   3.128526376837634E+00   3.167878394262286E+00   3.207725399131135E+00
   3.248073617619772E+00   3.288929354219412E+00   3.330298992722029E+00
   3.372188997217810E+00   3.414605913105172E+00   3.457556368113533E+00
   3.501047073338858E+00   3.545084824292329E+00   3.589676501962131E+00
   3.634829073888613E+00   3.680549595253015E+00   3.726845209979803E+00
   3.773723151852977E+00   3.821190745646334E+00   3.869255408267963E+00
   3.917924649919204E+00   3.967206075268066E+00   4.017107384637534E+00
   4.067636375208726E+00   4.118800942239207E+00   4.170609080296687E+00
   4.223068884508125E+00   4.276188551824669E+00   4.329976382302415E+00
   4.384440780399294E+00   4.439590256288333E+00   4.495433427187325E+00
   4.551979018705346E+00   4.609235866206120E+00   4.667212916188545E+00
   4.725919227684650E+00   4.785363973675031E+00   4.845556442522196E+00
   4.906506039421875E+00   4.968222287872569E+00   5.030714831163680E+00
   5.093993433882219E+00   5.158067983438612E+00   5.222948491611598E+00
   5.288645096112560E+00   5.355168062169631E+00   5.422527784131582E+00
   5.490734787092020E+00   5.559799728533938E+00   5.629733399994931E+00
   5.700546728753464E+00   5.772250779536207E+00   5.844856756246989E+00
   5.918376003717396E+00   5.992820009479405E+00   6.068200405560392E+00
   6.144528970300587E+00   6.221817630193533E+00   6.300078461749593E+00
   6.379323693382900E+00   6.459565707322144E+00   6.540817041545234E+00
   6.623090391738462E+00   6.706398613280193E+00   6.790754723249511E+00
   6.876171902460245E+00   6.962663497520410E+00   7.050243022917708E+00
   7.138924163131182E+00   7.228720774769387E+00   7.319646888735607E+00
   7.411716712420119E+00   7.504944631920201E+00   7.599345214287960E+00
   7.694933209806427E+00   7.791723554294404E+00   7.889731371440111E+00
   7.988971975164387E+00   8.089460872013486E+00   8.191213763581960E+00
   8.294246548966163E+00   8.398575327248402E+00   8.504216400012556E+00
   8.611186273891192E+00   8.719501663144701E+00   8.829179492273058E+00
   8.940236898660171E+00   9.052691235251753E+00   9.166560073266703E+00
   9.281861204942595E+00   9.398612646315870E+00   9.516832640036741E+00
   9.636539658219764E+00   9.757752405330091E+00   9.880489821106037E+00
   1.000477108351856E+01   1.013061561176773E+01   1.025804306931714E+01
   1.038707336696630E+01   1.051772666596169E+01   1.065002338114714E+01
   1.078398418415351E+01   1.091963000662885E+01   1.105698204350890E+01
   1.119606175632883E+01   1.133689087657677E+01   1.147949140908925E+01
   1.162388563548960E+01   1.177009611766949E+01   1.191814570131420E+01
   1.206805751947241E+01   1.221985499617067E+01   1.237356185007358E+01
   1.252920209818978E+01   1.268680005962467E+01   1.284638035938039E+01
   1.300796793220340E+01   1.317158802648074E+01   1.333726620818504E+01
   1.350502836486923E+01   1.367490070971165E+01   1.384690978561173E+01
   1.402108246933757E+01   1.419744597572539E+01   1.437602786193181E+01
   1.455685603173995E+01   1.473995873991917E+01   1.492536459664018E+01
   1.511310257194534E+01   1.530320200027518E+01   1.549569258505219E+01
   1.569060440332183E+01   1.588796791045227E+01   1.608781394489306E+01
   1.629017373299363E+01   1.649507889388262E+01   1.670256144440825E+01
   1.691265380414120E+01   1.712538880044013E+01   1.734079967358098E+01
   1.755892008195098E+01   1.777978410730767E+01   1.800342626010436E+01
   1.822988148488249E+01   1.845918516573158E+01   1.869137313181835E+01
   1.892648166298483E+01   1.916454749541737E+01   1.940560782738669E+01
   1.964970032506001E+01   1.989686312838679E+01   2.014713485705783E+01
   2.040055461653994E+01   2.065716200418617E+01   2.091699711542284E+01
   2.118010055001481E+01   2.144651341840891E+01   2.171627734815792E+01
   2.198943449042472E+01   2.226602752656847E+01   2.254609967481387E+01
   2.282969469700381E+01   2.311685690543753E+01   2.340763116979438E+01
   2.370206292414467E+01   2.400019817404911E+01   2.430208350374699E+01
   2.460776608343531E+01   2.491729367663909E+01   2.523071464767444E+01
   2.554807796920581E+01   2.586943322989779E+01   2.619483064216372E+01
   2.652432105001133E+01   2.685795593698710E+01   2.719578743422102E+01
   2.753786832857174E+01   2.788425207087503E+01   2.823499278429540E+01
   2.859014527278280E+01   2.894976502963623E+01   2.931390824617424E+01
   2.968263182051532E+01   3.005599336646820E+01   3.043405122253392E+01
   3.081686446102178E+01   3.120449289727902E+01   3.159699709903749E+01
   3.199443839587734E+01   3.239687888880967E+01   3.280438145998040E+01
   3.321700978249523E+01   3.363482833036909E+01   3.405790238860023E+01
   3.448629806337087E+01   3.492008229237689E+01   3.535932285528649E+01
   3.580408838433134E+01   3.625444837503027E+01   3.671047319704800E+01
   3.717223410519087E+01   3.763980325054010E+01   3.811325369172600E+01
   3.859265940634332E+01   3.907809530251019E+01   3.956963723057315E+01
   4.006736199495837E+01   4.057134736617298E+01   4.108167209295667E+01
   4.159841591458613E+01   4.212165957333495E+01   4.265148482708921E+01
   4.318797446212282E+01   4.373121230603284E+01   4.428128324083743E+01
   4.483827321623946E+01   4.540226926305562E+01   4.597335950681577E+01
   4.655163318153246E+01   4.713718064364372E+01   4.773009338613197E+01
   4.833046405281935E+01   4.893838645284408E+01   4.955395557531806E+01
   5.017726760416892E+01   5.080841993316945E+01   5.144751118115499E+01
   5.209464120743336E+01   5.274991112738785E+01   5.341342332827643E+01
   5.408528148523060E+01   5.476559057745411E+01   5.545445690462680E+01
   5.615198810351391E+01   5.685829316478419E+01   5.757348245004067E+01
   5.829766770906404E+01   5.903096209727446E+01   5.977348019341211E+01
   6.052533801743997E+01   6.128665304867292E+01   6.205754424413328E+01
   6.283813205713884E+01   6.362853845612361E+01   6.442888694369530E+01
   6.523930257593366E+01   6.605991198192979E+01   6.689084338357301E+01
   6.773222661558552E+01   6.858419314580888E+01   6.944687609574702E+01
   7.032041026136577E+01   7.120493213415583E+01   7.210057992245954E+01
   7.300749357306577E+01   7.392581479307785E+01   7.485568707205444E+01
   7.579725570443111E+01   7.675066781222245E+01   7.771607236800976E+01
   7.869362021821929E+01   7.968346410669119E+01   8.068575869854702E+01
   8.170066060435610E+01   8.272832840460576E+01   8.376892267448086E+01
   8.482260600895292E+01   8.588954304818678E+01   8.696990050326573E+01
   8.806384718223978E+01   8.917155401650351E+01   9.029319408750311E+01
   9.142894265378179E+01   9.257897717836391E+01   9.374347735648340E+01
   9.492262514366259E+01   9.611660478414187E+01   9.732560283966944E+01
   9.854980821865135E+01   9.978941220566841E+01   1.010446084913659E+02
    </PP_R>
    <PP_RAB>
   2.279704913886291E-06   2.308380071672556E-06   2.337415918541456E-06
   2.366816991403135E-06   2.396587884235050E-06   2.426733248799772E-06
   2.457257795371847E-06   2.488166293473778E-06   2.519463572621276E-06
   2.551154523077886E-06   2.583244096619093E-06   2.615737307306046E-06
   2.648639232269026E-06   2.681955012500742E-06   2.715689853659645E-06
   2.749849026883296E-06   2.784437869612008E-06   2.819461786422831E-06
   2.854926249874019E-06   2.890836801360144E-06   2.927199051977937E-06
   2.964018683403032E-06   3.001301448777752E-06   3.039053173610037E-06
   3.077279756683703E-06   3.115987170980124E-06   3.155181464611536E-06
   3.194868761766061E-06   3.235055263664620E-06   3.275747249529900E-06
   3.316951077567479E-06   3.358673185959317E-06   3.400920093869735E-06
   3.443698402464042E-06   3.487014795939997E-06   3.530876042572204E-06
   3.575288995769686E-06   3.620260595146739E-06   3.665797867607258E-06
   3.711907928442717E-06   3.758597982443931E-06   3.805875325026829E-06
   3.853747343372376E-06   3.902221517580831E-06   3.951305421840543E-06
   4.001006725611411E-06   4.051333194823266E-06   4.102292693089316E-06
   4.153893182934835E-06   4.206142727041353E-06   4.259049489506436E-06
   4.312621737119357E-06   4.366867840652800E-06   4.421796276170802E-06
   4.477415626353175E-06   4.533734581836539E-06   4.590761942572268E-06
   4.648506619201502E-06   4.706977634447443E-06   4.766184124525192E-06
   4.826135340569274E-06   4.886840650079168E-06   4.948309538382992E-06
   5.010551610119598E-06   5.073576590739335E-06   5.137394328023647E-06
   5.202014793623824E-06   5.267448084619085E-06   5.333704425094270E-06
   5.400794167737387E-06   5.468727795457213E-06   5.537515923021293E-06
   5.607169298714508E-06   5.677698806018517E-06   5.749115465312340E-06
   5.821430435594285E-06   5.894655016225583E-06   5.968800648695933E-06
   6.043878918411259E-06   6.119901556503958E-06   6.196880441665896E-06