<UPF version="2.0.1">
  <PP_INFO>
    Generated using "atomic" code by A. Dal Corso  v.7.2
    Author: ADC
    Generation date: 22Sep2023
    Pseudopotential type: USPP
    Element: Bi
    Functional: PBESOL
    Suggested minimum cutoff for wavefunctions:  45. Ry
    Suggested minimum cutoff for charge density: 455. Ry
    The Pseudo was generated with a Scalar-Relativistic Calculation
    Local Potential by smoothing AE potential with Bessel fncs, cutoff radius:   2.1000
    Valence configuration: 
    nl pn  l   occ       Rcut    Rcut US       E pseu
    6S  1  0  2.00      1.700      2.000    -1.068292
    6P  2  1  3.00      2.200      2.400    -0.337882
    5D  3  2 10.00      0.900      1.600    -1.988907
    Generation configuration:
    6S  1  0  2.00      1.700      2.000    -1.068288
    6S  1  0  0.00      1.700      2.000     4.000000
    6P  2  1  3.00      2.200      2.400    -0.337881
    6P  2  1  0.00      2.200      2.400     6.000000
    5D  3  2 10.00      0.900      1.600    -1.988906
    5D  3  2  0.00      0.900      1.600     6.000000
    Pseudization used: troullier-martins
    <PP_INPUTFILE>
@input
title='Bi',
zed=83.,
rel=1,
config='[Xe] 4f14 6s2 6p3 5d10',
iswitch=3,
dft='PBESOL'
/
@inputp
lpaw=.false.,
pseudotype=3,
file_pseudopw='Bi.pbesol-dn-rrkjus_psl.1.0.0.UPF',
author='ADC',
lloc=-1,
rcloc=2.1,
which_augfun='PSQ',
rmatch_augfun_nc=.true.,
nlcc=.true.,
new_core_ps=.true.,
rcore=1.6,
tm=.true.
/
6
6S  1  0  2.00  0.00  1.70  2.00  0.0
6S  1  0  0.00  4.00  1.70  2.00  0.0
6P  2  1  3.00  0.00  2.20  2.40  0.0
6P  2  1  0.00  6.00  2.20  2.40  0.0
5D  3  2 10.00  0.00  0.90  1.60  0.0
5D  3  2  0.00  6.00  0.90  1.60  0.0
    </PP_INPUTFILE>
  </PP_INFO>
    <!-- END OF HUMAN READABLE SECTION -->
  <PP_HEADER generated="Generated using 'atomic' code by A. Dal Corso  v.7.2" author="ADC" date="22Sep2023" comment="" element="Bi" pseudo_type="USPP" relativistic="scalar" is_ultrasoft="true" is_paw="false" is_coulomb="false" has_so="false" has_wfc="false" has_gipaw="false" paw_as_gipaw="false" core_correction="true" functional="PBESOL" z_valence="15.000000000000000" total_psenergy="-154.75339605923099" wfc_cutoff="45.228541417790176" rho_cutoff="454.70253970857493" l_max="2" l_max_rho="4" l_local="-1" mesh_size="1283" number_of_wfc="3" number_of_proj="6"/>
  <PP_MESH mesh="1283" dx="1.2500000000000001E-002" xmin="-7.0000000000000000" rmax="100.00000000000000" zmesh="83.000000000000000">
    <PP_R>
   1.098652970547610E-05   1.112472323697617E-05   1.126465502911545E-05
   1.140634694652113E-05   1.154982112884361E-05   1.169509999421577E-05
   1.184220624275589E-05   1.199116286011459E-05   1.214199312106639E-05
   1.229472059314644E-05   1.244936914033298E-05   1.260596292677613E-05
   1.276452642057362E-05   1.292508439759394E-05   1.308766194534769E-05
   1.325228446690745E-05   1.341897768487715E-05   1.358776764541123E-05
   1.375868072228443E-05   1.393174362101274E-05   1.410698338302620E-05
   1.428442738989413E-05   1.446410336760362E-05   1.464603939089174E-05
   1.483026388763230E-05   1.501680564327771E-05   1.520569380535680E-05
   1.539695788802921E-05   1.559062777669696E-05   1.578673373267422E-05
   1.598530639791556E-05   1.618637679980394E-05   1.638997635599872E-05
   1.659613687934478E-05   1.680489058284336E-05   1.701627008468532E-05
   1.723030841334789E-05   1.744703901275537E-05   1.766649574750486E-05
   1.788871290815767E-05   1.811372521659726E-05   1.834156783145460E-05
   1.857227635360181E-05   1.880588683171484E-05   1.904243576790623E-05
   1.928196012342849E-05   1.952449732444948E-05   1.977008526790031E-05
   2.001876232739679E-05   2.027056735923544E-05   2.052553970846475E-05
   2.078371921503304E-05   2.104514622001349E-05   2.130986157190748E-05
   2.157790663302735E-05   2.184932328595922E-05   2.212415394010731E-05
   2.240244153832049E-05   2.268422956360214E-05   2.296956204590454E-05
   2.325848356900855E-05   2.355103927748996E-05   2.384727488377346E-05
   2.414723667527517E-05   2.445097152163535E-05   2.475852688204167E-05
   2.506995081264493E-05   2.538529197406788E-05   2.570459963900853E-05
   2.602792369993921E-05   2.635531467690223E-05   2.668682372540382E-05
   2.702250264440727E-05   2.736240388442659E-05   2.770658055572212E-05
   2.805508643659896E-05   2.840797598181004E-05   2.876530433106474E-05
   2.912712731764462E-05   2.949350147712751E-05   2.986448405622119E-05
   3.024013302170842E-05   3.062050706950432E-05   3.100566563382771E-05
   3.139566889648793E-05   3.179057779628821E-05   3.219045403854760E-05
   3.259536010474249E-05   3.300535926226950E-05   3.342051557433119E-05
   3.384089390994594E-05   3.426655995408395E-05   3.469758021793064E-05
   3.513402204927913E-05   3.557595364305357E-05   3.602344405196458E-05
   3.647656319729898E-05   3.693538187984510E-05   3.739997179095553E-05
   3.787040552374916E-05   3.834675658445382E-05   3.882909940389188E-05
   3.931750934911022E-05   3.981206273515641E-05   4.031283683700328E-05
   4.081990990162303E-05   4.133336116021367E-05   4.185327084057896E-05
   4.237972017966420E-05   4.291279143624975E-05   4.345256790380398E-05
   4.399913392349812E-05   4.455257489738473E-05   4.511297730174193E-05
   4.568042870058563E-05   4.625501775935137E-05   4.683683425874856E-05
   4.742596910878895E-05   4.802251436299145E-05   4.862656323276576E-05
   4.923821010197671E-05   4.985755054169201E-05   5.048468132511541E-05
   5.111970044270772E-05   5.176270711749807E-05   5.241380182058758E-05
   5.307308628684826E-05   5.374066353081930E-05   5.441663786280320E-05
   5.510111490516474E-05   5.579420160883428E-05   5.649600627001941E-05
   5.720663854712623E-05   5.792620947789381E-05   5.865483149674414E-05
   5.939261845235002E-05   6.013968562542430E-05   6.089614974673270E-05
   6.166212901533315E-05   6.243774311704488E-05   6.322311324314921E-05
   6.401836210932622E-05   6.482361397482916E-05   6.563899466190030E-05
   6.646463157543098E-05   6.730065372286867E-05   6.814719173437479E-05
   6.900437788323597E-05   6.987234610653182E-05   7.075123202606328E-05
   7.164117296954330E-05   7.254230799205493E-05   7.345477789777878E-05
   7.437872526199399E-05   7.531429445335617E-05   7.626163165645478E-05
   7.722088489465521E-05   7.819220405322755E-05   7.917574090276643E-05
   8.017164912290571E-05   8.118008432633093E-05   8.220120408309430E-05
   8.323516794523533E-05   8.428213747171097E-05   8.534227625364006E-05
   8.641574993986385E-05   8.750272626283002E-05   8.860337506480043E-05
   8.971786832438961E-05   9.084638018343706E-05   9.198908697421641E-05
   9.314616724698881E-05   9.431780179790089E-05   9.550417369723487E-05
   9.670546831801398E-05   9.792187336496639E-05   9.915357890385578E-05
   1.004007773911784E-04   1.016636637042353E-04   1.029424351715825E-04
   1.042372916038631E-04   1.055484353250293E-04   1.068760712039549E-04
   1.082204066864472E-04   1.095816518276605E-04   1.109600193249174E-04
   1.123557245509437E-04   1.137689855875206E-04   1.152000232595603E-04
   1.166490611696108E-04   1.181163257327931E-04   1.196020462121809E-04
   1.211064547546215E-04   1.226297864270105E-04   1.241722792530211E-04
   1.257341742502952E-04   1.273157154681043E-04   1.289171500254811E-04
   1.305387281498332E-04   1.321807032160420E-04   1.338433317860519E-04
   1.355268736489598E-04   1.372315918616070E-04   1.389577527896822E-04
   1.407056261493428E-04   1.424754850493568E-04   1.442676060337786E-04
   1.460822691251578E-04   1.479197578682944E-04   1.497803593745433E-04
   1.516643643666747E-04   1.535720672243020E-04   1.555037660298780E-04
   1.574597626152708E-04   1.594403626089270E-04   1.614458754836244E-04
   1.634766146048305E-04   1.655328972796644E-04   1.676150448064773E-04
   1.697233825250571E-04   1.718582398674609E-04   1.740199504094925E-04
   1.762088519228220E-04   1.784252864277638E-04   1.806696002467195E-04
   1.829421440582885E-04   1.852432729520655E-04   1.875733464841216E-04
   1.899327287331866E-04   1.923217883575376E-04   1.947408986526009E-04
   1.971904376092823E-04   1.996707879730272E-04   2.021823373036260E-04
   2.047254780357721E-04   2.073006075403781E-04   2.099081281866689E-04
   2.125484474050502E-04   2.152219777507715E-04   2.179291369683893E-04
   2.206703480570383E-04   2.234460393365287E-04   2.262566445142700E-04
   2.291026027530392E-04   2.319843587396016E-04   2.349023627541927E-04
   2.378570707408769E-04   2.408489443787883E-04   2.438784511542698E-04
   2.469460644339188E-04   2.500522635385511E-04   2.531975338180967E-04
   2.563823667274358E-04   2.596072599031900E-04   2.628727172414792E-04
   2.661792489766559E-04   2.695273717610313E-04   2.729176087456021E-04
   2.763504896617943E-04   2.798265509042359E-04   2.833463356145676E-04
   2.869103937663118E-04   2.905192822508057E-04   2.941735649642173E-04
   2.978738128956554E-04   3.016206042163873E-04   3.054145243701800E-04
   3.092561661647763E-04   3.131461298645223E-04   3.170850232841604E-04
   3.210734618838010E-04   3.251120688650902E-04   3.292014752685852E-04
   3.333423200723563E-04   3.375352502918292E-04   3.417809210808808E-04
   3.460799958342100E-04   3.504331462909937E-04   3.548410526398469E-04
   3.593044036251049E-04   3.638238966544398E-04   3.684002379078325E-04
   3.730341424479144E-04   3.777263343316975E-04   3.824775467237103E-04
   3.872885220105550E-04   3.921600119169088E-04   3.970927776229803E-04
   4.020875898834468E-04   4.071452291478862E-04   4.122664856827233E-04
   4.174521596947111E-04   4.227030614559643E-04   4.280200114305658E-04
   4.334038404027671E-04   4.388553896067980E-04   4.443755108583134E-04
   4.499650666874894E-04   4.556249304737962E-04   4.613559865824658E-04
   4.671591305026748E-04   4.730352689874677E-04   4.789853201954376E-04
   4.850102138341910E-04   4.911108913056172E-04   4.972883058529825E-04
   5.035434227098786E-04   5.098772192510400E-04   5.162906851450625E-04
   5.227848225090407E-04   5.293606460651496E-04   5.360191832991991E-04
   5.427614746211786E-04   5.495885735278241E-04   5.565015467672304E-04
   5.635014745055299E-04   5.705894504956739E-04   5.777665822483310E-04
   5.850339912049394E-04   5.923928129129347E-04   5.998441972031801E-04
   6.073893083696310E-04   6.150293253512580E-04   6.227654419162580E-04
   6.305988668485829E-04   6.385308241368168E-04   6.465625531654233E-04
   6.546953089084035E-04   6.629303621253886E-04   6.712689995601976E-04
   6.797125241418958E-04   6.882622551883770E-04   6.969195286125119E-04
   7.056856971308862E-04   7.145621304751653E-04   7.235502156061199E-04
   7.326513569303370E-04   7.418669765196655E-04   7.511985143334152E-04
   7.606474284433540E-04   7.702151952615370E-04   7.799033097709946E-04
   7.897132857593297E-04   7.996466560552486E-04   8.097049727680694E-04
   8.198898075302434E-04   8.302027517429227E-04   8.406454168246225E-04
   8.512194344630075E-04   8.619264568698459E-04   8.727681570391742E-04
   8.837462290087004E-04   8.948623881245048E-04   9.061183713090654E-04
   9.175159373326546E-04   9.290568670881532E-04   9.407429638693153E-04
   9.525760536525384E-04   9.645579853821757E-04   9.766906312594365E-04
   9.889758870349253E-04   1.001415672304850E-03   1.014011930810969E-03
   1.026766630744300E-03   1.039681765052657E-03   1.052759351752053E-03
   1.066001434242016E-03   1.079410081624876E-03   1.092987389029067E-03
   1.106735477936493E-03   1.120656496514018E-03   1.134752619949117E-03
   1.149026050789755E-03   1.163479019288541E-03   1.178113783751205E-03
   1.192932630889474E-03   1.207937876178358E-03   1.223131864217965E-03
   1.238516969099837E-03   1.254095594777911E-03   1.269870175444149E-03
   1.285843175908870E-03   1.302017091985895E-03   1.318394450882518E-03
   1.334977811594385E-03   1.351769765305346E-03   1.368772935792335E-03
   1.385989979835331E-03   1.403423587632494E-03   1.421076483220513E-03
   1.438951424900236E-03   1.457051205667671E-03   1.475378653650385E-03
   1.493936632549413E-03   1.512728042086715E-03   1.531755818458260E-03
   1.551022934792822E-03   1.570532401616526E-03   1.590287267323256E-03
   1.610290618650970E-03   1.630545581164008E-03   1.651055319741475E-03
   1.671823039071750E-03   1.692851984153231E-03   1.714145440801370E-03
   1.735706736162088E-03   1.757539239231656E-03   1.779646361383095E-03
   1.802031556899218E-03   1.824698323512370E-03   1.847650202950945E-03
   1.870890781492807E-03   1.894423690525634E-03   1.918252607114342E-03
   1.942381254575625E-03   1.966813403059740E-03   1.991552870139597E-03
   2.016603521407260E-03   2.041969271077954E-03   2.067654082601673E-03
   2.093661969282472E-03   2.119996994905561E-03   2.146663274372271E-03
   2.173664974343023E-03   2.201006313888371E-03   2.228691565148244E-03
   2.256725053999483E-03   2.285111160731751E-03   2.313854320731978E-03
   2.342959025177394E-03   2.372429821737278E-03   2.402271315283556E-03
   2.432488168610307E-03   2.463085103162338E-03   2.494066899772925E-03
   2.525438399410817E-03   2.557204503936664E-03   2.589370176868924E-03
   2.621940444159434E-03   2.654920394978723E-03   2.688315182511202E-03
   2.722130024760372E-03   2.756370205364126E-03   2.791041074420348E-03
   2.826148049322865E-03   2.861696615607929E-03   2.897692327811352E-03
   2.934140810336395E-03   2.971047758332609E-03   3.008418938585708E-03
   3.046260190418632E-03   3.084577426603977E-03   3.123376634287851E-03
   3.162663875925390E-03   3.202445290228033E-03   3.242727093122697E-03
   3.283515578723044E-03   3.324817120312931E-03   3.366638171342258E-03
   3.408985266435338E-03   3.451865022411929E-03   3.495284139321149E-03
   3.539249401488349E-03   3.583767678575189E-03   3.628845926653040E-03
   3.674491189289871E-03   3.720710598650842E-03   3.767511376612697E-03
   3.814900835892210E-03   3.862886381188806E-03   3.911475510341563E-03
   3.960675815500773E-03   4.010494984314212E-03   4.060940801128367E-03
   4.112021148204746E-03   4.163744006951501E-03   4.216117459170547E-03
   4.269149688320348E-03   4.322848980794600E-03   4.377223727217006E-03
   4.432282423752317E-03   4.488033673433892E-03   4.544486187507917E-03
   4.601648786794568E-03   4.659530403066283E-03   4.718140080443361E-03
   4.777486976807144E-03   4.837580365230926E-03   4.898429635428908E-03
   4.960044295223359E-03   5.022433972030222E-03   5.085608414363440E-03
   5.149577493358154E-03   5.214351204313103E-03   5.279939668252405E-03
   5.346353133506987E-03   5.413601977315924E-03   5.481696707447876E-03
   5.550647963842965E-03   5.620466520275286E-03   5.691163286036321E-03
   5.762749307639568E-03   5.835235770546537E-03   5.908634000914534E-03
   5.982955467366384E-03   6.058211782782420E-03   6.134414706115051E-03
   6.211576144226076E-03   6.289708153747185E-03   6.368822942963827E-03
   6.448932873722775E-03   6.530050463363701E-03   6.612188386675019E-03
   6.695359477874358E-03   6.779576732613929E-03   6.864853310011121E-03
   6.951202534704660E-03   7.038637898936578E-03   7.127173064660427E-03
   7.216821865675973E-03   7.307598309790764E-03   7.399516581008890E-03
   7.492591041747233E-03   7.586836235079643E-03   7.682266887009323E-03
   7.778897908769784E-03   7.876744399154789E-03   7.975821646877521E-03
   8.076145132959515E-03   8.177730533149576E-03   8.280593720373160E-03
   8.384750767212555E-03   8.490217948418238E-03   8.597011743451842E-03
   8.705148839061117E-03   8.814646131887250E-03   8.925520731105035E-03
   9.037789961096169E-03   9.151471364156252E-03   9.266582703235797E-03
   9.383141964715722E-03   9.501167361217793E-03   9.620677334450328E-03
   9.741690558089794E-03   9.864225940698584E-03   9.988302628679523E-03
   1.011394000926756E-02   1.024115771355902E-02   1.036997561957901E-02
   1.050041385538745E-02   1.063249280222404E-02   1.076623309769296E-02
   1.090165563898747E-02   1.103878158615516E-02   1.117763236540426E-02
   1.131822967245152E-02   1.146059547591222E-02   1.160475202073280E-02
   1.175072183166666E-02   1.189852771679376E-02   1.204819277108434E-02
   1.219974038000765E-02   1.235319422318589E-02   1.250857827809428E-02
   1.266591682380753E-02   1.282523444479349E-02   1.298655603475460E-02
   1.314990680051749E-02   1.331531226597166E-02   1.348279827605761E-02
   1.365239100080514E-02   1.382411693942256E-02   1.399800292443715E-02
   1.417407612588784E-02   1.435236405557059E-02   1.453289457133712E-02
   1.471569588144783E-02   1.490079654897934E-02   1.508822549628753E-02
   1.527801200952675E-02   1.547018574322580E-02   1.566477672492158E-02
   1.586181535985087E-02   1.606133243570125E-02   1.626335912742173E-02
   1.646792700209393E-02   1.667506802386448E-02   1.688481455893944E-02
   1.709719938064166E-02   1.731225567453163E-02   1.753001704359279E-02
   1.775051751348212E-02   1.797379153784663E-02   1.819987400370691E-02
   1.842880023690819E-02   1.866060600764016E-02   1.889532753602613E-02
   1.913300149778246E-02   1.937366502994920E-02   1.961735573669290E-02
   1.986411169518227E-02   2.011397146153787E-02   2.036697407685653E-02
   2.062315907331163E-02   2.088256648033008E-02   2.114523683084697E-02
   2.141121116763902E-02   2.168053104973746E-02   2.195323855892181E-02
   2.222937630629519E-02   2.250898743894244E-02   2.279211564667193E-02
   2.307880516884213E-02   2.336910080127416E-02   2.366304790325119E-02
   2.396069240460593E-02   2.426208081289731E-02   2.456726022067730E-02
   2.487627831284925E-02   2.518918337411876E-02   2.550602429653825E-02
   2.582685058714650E-02   2.615171237570413E-02   2.648066042252654E-02
   2.681374612641529E-02   2.715102153268926E-02   2.749253934131692E-02
   2.783835291515066E-02   2.818851628826496E-02   2.854308417439930E-02
   2.890211197550721E-02   2.926565579041311E-02   2.963377242357772E-02
   3.000651939397388E-02   3.038395494407409E-02   3.076613804895093E-02
   3.115312842549213E-02   3.154498654173134E-02   3.194177362629648E-02
   3.234355167797678E-02   3.275038347541018E-02   3.316233258689286E-02
   3.357946338031147E-02   3.400184103320120E-02   3.442953154292971E-02
   3.486260173700917E-02   3.530111928353862E-02   3.574515270177673E-02
   3.619477137284858E-02   3.665004555058633E-02   3.711104637250640E-02
   3.757784587092525E-02   3.805051698421408E-02   3.852913356819608E-02
   3.901377040768630E-02   3.950450322817679E-02   4.000140870766929E-02
   4.050456448865579E-02   4.101404919025082E-02   4.152994242047563E-02
   4.205232478869689E-02   4.258127791822257E-02   4.311688445905518E-02
   4.365922810080652E-02   4.420839358577405E-02   4.476446672218198E-02
   4.532753439758933E-02   4.589768459246581E-02   4.647500639393944E-02
   4.705959000971632E-02   4.765152678217563E-02   4.825090920264252E-02
   4.885783092583947E-02   4.947238678452062E-02   5.009467280428929E-02
   5.072478621860193E-02   5.136282548396171E-02   5.200889029530174E-02
   5.266308160156333E-02   5.332550162146913E-02   5.399625385949475E-02
   5.467544312204226E-02   5.536317553381554E-02   5.605955855440323E-02
   5.676470099506921E-02   5.747871303575425E-02   5.820170624229257E-02
   5.893379358384345E-02   5.967508945054353E-02   6.042570967138027E-02
   6.118577153229014E-02   6.195539379448544E-02   6.273469671301024E-02
   6.352380205553121E-02   6.432283312136361E-02   6.513191476073694E-02
   6.595117339430367E-02   6.678073703289185E-02   6.762073529750789E-02
   6.847129943958974E-02   6.933256236151483E-02   7.020465863736722E-02
   7.108772453396407E-02   7.198189803214845E-02   7.288731884834880E-02
   7.380412845640948E-02   7.473247010969725E-02   7.567248886348393E-02
   7.662433159761239E-02   7.758814703944655E-02   7.856408578710979E-02
   7.955230033301729E-02   8.055294508770207E-02   8.156617640394305E-02
   8.259215260119497E-02   8.363103399032573E-02   8.468298289866627E-02
   8.574816369537346E-02   8.682674281711404E-02   8.791888879407032E-02
   8.902477227627290E-02   9.014456606026609E-02   9.127844511610661E-02
   9.242658661470395E-02   9.358916995550334E-02   9.476637679451677E-02
   9.595839107270819E-02   9.716539904473344E-02   9.838758930804394E-02
   9.962515283235511E-02   1.008782829894851E-01   1.021471755835709E-01
   1.034320288816614E-01   1.047330436446988E-01   1.060504231588869E-01
   1.073843732674547E-01   1.087351024028209E-01   1.101028216191606E-01
   1.114877446253842E-01   1.128900878185293E-01   1.143100703175726E-01
   1.157479139976688E-01   1.172038435248179E-01   1.186780863909709E-01
   1.201708729495750E-01   1.216824364515669E-01   1.232130130818194E-01
   1.247628419960445E-01   1.263321653581635E-01   1.279212283781447E-01
   1.295302793503175E-01   1.311595696921705E-01   1.328093539836338E-01
   1.344798900068598E-01   1.361714387865011E-01   1.378842646304954E-01
   1.396186351713663E-01   1.413748214080387E-01   1.431530977481855E-01
   1.449537420511029E-01   1.467770356711262E-01   1.486232635015936E-01
   1.504927140193592E-01   1.523856793298702E-01   1.543024552128077E-01
   1.562433411683028E-01   1.582086404637353E-01   1.601986601811179E-01
   1.622137112650808E-01   1.642541085714550E-01   1.663201709164710E-01
   1.684122211265741E-01   1.705305860888651E-01   1.726755968021801E-01
   1.748475884288063E-01   1.770469003468547E-01   1.792738762032873E-01
   1.815288639676119E-01   1.838122159862552E-01   1.861242890376148E-01
   1.884654443878093E-01   1.908360478471257E-01   1.932364698271768E-01
   1.956670853987814E-01   1.981282743505670E-01   2.006204212483150E-01
   2.031439154950488E-01   2.056991513918778E-01   2.082865281996104E-01
   2.109064502011360E-01   2.135593267645981E-01   2.162455724073573E-01
   2.189656068607599E-01   2.217198551357238E-01   2.245087475891448E-01
   2.273327199911432E-01   2.301922135931526E-01   2.330876751968653E-01
   2.360195572240484E-01   2.389883177872329E-01   2.419944207612972E-01
   2.450383358559473E-01   2.481205386891089E-01   2.512415108612462E-01
   2.544017400306099E-01   2.576017199894379E-01   2.608419507411093E-01
   2.641229385782707E-01   2.674451961619478E-01   2.708092426016461E-01
   2.742156035364666E-01   2.776648112172361E-01   2.811574045896714E-01
   2.846939293785933E-01   2.882749381731946E-01   2.919009905133853E-01
   2.955726529772214E-01   2.992904992694319E-01   3.030551103110650E-01
   3.068670743302542E-01   3.107269869541333E-01   3.146354513019035E-01
   3.185930780790699E-01   3.226004856728694E-01   3.266583002488905E-01
   3.307671558489169E-01   3.349276944899963E-01   3.391405662647549E-01
   3.434064294429797E-01   3.477259505744703E-01   3.520998045931921E-01
   3.565286749227347E-01   3.610132535830967E-01   3.655542412988188E-01
   3.701523476084691E-01   3.748082909755140E-01   3.795227989005779E-01
   3.842966080351145E-01   3.891304642965147E-01   3.940251229846527E-01
   3.989813488999074E-01   4.039999164626622E-01   4.090816098343079E-01
   4.142272230397738E-01   4.194375600915909E-01   4.247134351155246E-01
   4.300556724777820E-01   4.354651069138185E-01   4.409425836587715E-01
   4.464889585795253E-01   4.521050983084458E-01   4.577918803787928E-01
   4.635501933618330E-01   4.693809370056870E-01   4.752850223759103E-01
   4.812633719978546E-01   4.873169200008124E-01   4.934466122639735E-01
   4.996534065642267E-01   5.059382727258074E-01   5.123021927718407E-01
   5.187461610777827E-01   5.252711845267892E-01   5.318782826670516E-01
   5.385684878710947E-01   5.453428454970936E-01   5.522024140522110E-01
   5.591482653579877E-01   5.661814847178235E-01   5.733031710865506E-01
   5.805144372421545E-01   5.878164099596441E-01   5.952102301871107E-01
   6.026970532240098E-01   6.102780489016707E-01   6.179544017660928E-01
   6.257273112630301E-01   6.335979919254030E-01   6.415676735630806E-01
   6.496376014550309E-01   6.578090365439064E-01   6.660832556330661E-01
   6.744615515860741E-01   6.829452335287214E-01   6.915356270535691E-01
   7.002340744270842E-01   7.090419347993669E-01   7.179605844165180E-01
   7.269914168356875E-01   7.361358431428118E-01   7.453952921731071E-01
   7.547712107343243E-01   7.642650638328113E-01   7.738783349024332E-01
   7.836125260363496E-01   7.934691582217313E-01   8.034497715774122E-01
   8.135559255945319E-01   8.237891993802196E-01   8.341511919043210E-01
   8.446435222492513E-01   8.552678298629751E-01   8.660257748151695E-01
   8.769190380566234E-01   8.879493216818777E-01   8.991183491951917E-01
   9.104278657798396E-01   9.218796385707938E-01   9.334754569308551E-01
   9.452171327302308E-01   9.571065006296546E-01   9.691454183670519E-01
   9.813357670478089E-01   9.936794514387123E-01   1.006178400265558E+00
   1.018834566514530E+00   1.031649927737357E+00   1.044626486360300E+00
   1.057766269997047E+00   1.071071331765522E+00   1.084543750608697E+00
   1.098185631619427E+00   1.111999106369372E+00   1.125986333242069E+00
   1.140149497770170E+00   1.154490812976950E+00   1.169012519722090E+00
   1.183716887051808E+00   1.198606212553421E+00   1.213682822714327E+00
   1.228949073285538E+00   1.244407349649769E+00   1.260060067194147E+00
   1.275909671687639E+00   1.291958639663187E+00   1.308209478804694E+00
   1.324664728338839E+00   1.341326959431836E+00   1.358198775591197E+00
   1.375282813072519E+00   1.392581741291418E+00   1.410098263240625E+00
   1.427835115912329E+00   1.445795070725850E+00   1.463980933960662E+00
   1.482395547194898E+00   1.501041787749343E+00   1.519922569137014E+00
   1.539040841518422E+00   1.558399592162518E+00   1.578001845913477E+00
   1.597850665663333E+00   1.617949152830549E+00   1.638300447844640E+00
   1.658907730636852E+00   1.679774221137050E+00   1.700903179776831E+00
   1.722297907998964E+00   1.743961748773267E+00   1.765898087118930E+00
   1.788110350633453E+00   1.810602010028205E+00   1.833376579670718E+00
   1.856437618133842E+00   1.879788728751748E+00   1.903433560182981E+00
   1.927375806980562E+00   1.951619210169257E+00   1.976167557830144E+00
   2.001024685692483E+00   2.026194477733078E+00   2.051680866783146E+00
   2.077487835142823E+00   2.103619415203427E+00   2.130079690077499E+00
   2.156872794236827E+00   2.184002914158450E+00   2.211474288978795E+00
   2.239291211156076E+00   2.267458027140970E+00   2.295979138055783E+00
   2.324859000382128E+00   2.354102126657240E+00   2.383713086179105E+00
   2.413696505720384E+00   2.444057070251384E+00   2.474799523672089E+00
   2.505928669553381E+00   2.537449371887647E+00   2.569366555848748E+00
   2.601685208561616E+00   2.634410379881496E+00   2.667547183182978E+00
   2.701100796159003E+00   2.735076461629857E+00   2.769479488362396E+00
   2.804315251899546E+00   2.839589195400224E+00   2.875306830489878E+00
   2.911473738121648E+00   2.948095569448439E+00   2.985178046705907E+00
   3.022726964106561E+00   3.060748188745148E+00   3.099247661515361E+00
   3.138231398038154E+00   3.177705489601678E+00   3.217676104113038E+00
   3.258149487062084E+00   3.299131962497236E+00   3.340629934013662E+00
   3.382649885753850E+00   3.425198383420734E+00   3.468282075303655E+00
   3.511907693317111E+00   3.556082054052678E+00   3.600812059844103E+00
   3.646104699845781E+00   3.691967051124875E+00   3.738406279767065E+00
   3.785429641996316E+00   3.833044485308651E+00   3.881258249620199E+00
   3.930078468429739E+00   3.979512769995770E+00   4.029568878528495E+00
   4.080254615396718E+00   4.131577900349932E+00   4.183546752755844E+00
   4.236169292853359E+00   4.289453743021435E+00   4.343408429063828E+00
   4.398041781509987E+00   4.453362336932400E+00   4.509378739280388E+00
   4.566099741230790E+00   4.623534205555569E+00   4.681691106506612E+00
   4.740579531218030E+00   4.800208681125976E+00   4.860587873406447E+00
   4.921726542431091E+00   4.983634241241311E+00   5.046320643041016E+00
   5.109795542708007E+00   5.174068858324505E+00   5.239150632726851E+00
   5.305051035074686E+00   5.371780362439971E+00   5.439349041415849E+00
   5.507767629745891E+00   5.577046817973730E+00   5.647197431113458E+00
   5.718230430341119E+00   5.790156914707342E+00   5.862988122871653E+00
   5.936735434858515E+00   6.011410373835446E+00   6.087024607913608E+00
   6.163589951970894E+00   6.241118369498096E+00   6.319621974468198E+00
   6.399113033229170E+00   6.479603966420692E+00   6.561107350914813E+00
   6.643635921781190E+00   6.727202574276940E+00   6.811820365861508E+00
   6.897502518237010E+00   6.984262419414053E+00   7.072113625803721E+00
   7.161069864335762E+00   7.251145034603400E+00   7.342353211035278E+00
   7.434708645094502E+00   7.528225767505553E+00   7.622919190509085E+00
   7.718803710145070E+00   7.815894308564807E+00   7.914206156371804E+00
   8.013754614992312E+00   8.114555239075536E+00   8.216623778924042E+00
   8.319976182954871E+00   8.424628600191395E+00   8.530597382786739E+00
   8.637899088578793E+00   8.746550483677366E+00   8.856568545084023E+00
   8.967970463344663E+00   9.080773645235679E+00   9.194995716483755E+00
   9.310654524519880E+00   9.427768141268151E+00   9.546354865969423E+00
   9.666433228040711E+00   9.788021989970410E+00   9.911140150249908E+00
   1.003580694634227E+01   1.016204185768799E+01   1.028986460874881E+01
   1.041929517208966E+01   1.055035377149935E+01   1.068306088515071E+01
   1.081743724880022E+01   1.095350385902810E+01   1.109128197651905E+01
   1.123079312938420E+01   1.137205911652506E+01   1.151510201103949E+01
   1.165994416367080E+01   1.180660820630005E+01   1.195511705548224E+01
   1.210549391602725E+01   1.225776228462544E+01   1.241194595351920E+01
   1.256806901422053E+01   1.272615586127524E+01   1.288623119607487E+01
   1.304832003071610E+01   1.321244769190914E+01   1.337863982493500E+01
   1.354692239765254E+01   1.371732170455616E+01   1.388986437088420E+01
   1.406457735677934E+01   1.424148796150111E+01   1.442062382769137E+01
   1.460201294569372E+01   1.478568365792683E+01   1.497166466331320E+01