<UPF version="2.0.1">
  <PP_INFO>
    Generated using "atomic" code by A. Dal Corso  v.7.2
    Author: ADC
    Generation date: 22Sep2023
    Pseudopotential type: PAW
    Element: Ce
    Functional:  SLA  PW   PSX  PSC
    Suggested minimum cutoff for wavefunctions: 173. Ry
    Suggested minimum cutoff for charge density: 692. Ry
    The Pseudo was generated with a Scalar-Relativistic Calculation
    Local Potential by smoothing AE potential with Bessel fncs, cutoff radius:   2.0000
    Valence configuration: 
    nl pn  l   occ       Rcut    Rcut US       E pseu
    5S  1  0  2.00      0.900      1.600    -3.106053
    6S  2  0  2.00      0.900      1.600    -0.287078
    5P  2  1  6.00      1.000      1.900    -1.801377
    4D  3  2 10.00      0.900      1.000    -8.387073
    5D  4  2  1.50      0.950      1.100    -0.263017
    4F  4  3  0.50      1.000      1.300    -0.612373
    Generation configuration:
    5S  1  0  2.00      0.900      1.600    -3.106118
    6S  2  0  2.00      0.900      1.600    -0.287088
    5P  2  1  6.00      1.000      1.900    -1.801423
    6P  3  1  0.00      1.000      1.900     0.300000
    4D  3  2 10.00      0.900      1.000    -8.387256
    5D  4  2  1.50      0.950      1.100    -0.263038
    4F  4  3  0.50      1.000      1.300    -0.612503
    4F  4  3  0.00      1.000      1.300     1.000000
    Pseudization used: troullier-martins
    <PP_INPUTFILE>
@input
title='Ce',
zed=58.0,
rel=1,
config='[Xe] 4f0.5 5d1.5 6s2.0 6p0.0',
iswitch=3,
dft='PBESOL'
/
@inputp
lpaw=.true.,
pseudotype=3,
file_pseudopw='Ce.pbesol-spdfn-kjpaw_psl.1.0.0.UPF',
author='ADC',
lloc=-1,
rcloc=2.0,
which_augfun='PSQ',
rmatch_augfun_nc=.true.,
nlcc=.true.,
new_core_ps=.true.,
rcore=1.2,
tm=.true.
/
8
5S  1  0  2.00  0.00  0.90  1.60  0.0
6S  2  0  2.00  0.00  0.90  1.60  0.0
5P  2  1  6.00  0.00  1.00  1.90  0.0
6P  3  1  0.00  0.30  1.00  1.90  0.0
4D  3  2 10.00  0.00  0.90  1.00  0.0
5D  4  2  1.50  0.00  0.95  1.10  0.0
4F  4  3  0.50  0.00  1.00  1.30  0.0
4F  4  3  0.00  1.00  1.00  1.30  0.0
    </PP_INPUTFILE>
  </PP_INFO>
    <!-- END OF HUMAN READABLE SECTION -->
  <PP_HEADER generated="Generated using 'atomic' code by A. Dal Corso  v.7.2" author="ADC" date="22Sep2023" comment="" element="Ce" pseudo_type="PAW" relativistic="scalar" is_ultrasoft="true" is_paw="true" is_coulomb="false" has_so="false" has_wfc="true" has_gipaw="false" paw_as_gipaw="false" core_correction="true" functional=" SLA  PW   PSX  PSC" z_valence="22.000000000000000" total_psenergy="-781.78178470142484" wfc_cutoff="173.10308404825949" rho_cutoff="692.41233619303796" l_max="3" l_max_rho="6" l_local="-1" mesh_size="1255" number_of_wfc="6" number_of_proj="8"/>
  <PP_MESH mesh="1255" dx="1.2500000000000001E-002" xmin="-7.0000000000000000" rmax="100.00000000000000" zmesh="58.000000000000000">
    <PP_R>
   1.572210285438821E-05   1.591986256325900E-05   1.612010978304452E-05
   1.632287580278024E-05   1.652819230506931E-05   1.673609137103291E-05
   1.694660548532308E-05   1.715976754119847E-05   1.737561084566397E-05
   1.759416912467508E-05   1.781547652840753E-05   1.803956763659342E-05
   1.826647746392431E-05   1.849624146552236E-05   1.872889554248031E-05
   1.896447604747100E-05   1.920301979042764E-05   1.944456404429539E-05
   1.968914655085530E-05   1.993680552662169E-05   2.018757966881335E-05
   2.044150816140022E-05   2.069863068122588E-05   2.095898740420715E-05
   2.122261901161174E-05   2.148956669641465E-05   2.175987216973473E-05
   2.203357766735215E-05   2.231072595630772E-05   2.259136034158552E-05
   2.287552467287917E-05   2.316326335144357E-05   2.345462133703265E-05
   2.374964415492443E-05   2.404837790303446E-05   2.435086925911865E-05
   2.465716548806680E-05   2.496731444928785E-05   2.528136460418798E-05
   2.559936502374288E-05   2.592136539616504E-05   2.624741603466779E-05
   2.657756788532673E-05   2.691187253504021E-05   2.725038221958995E-05
   2.759314983180283E-05   2.794022892981563E-05   2.829167374544355E-05
   2.864753919265403E-05   2.900788087614726E-05   2.937275510004438E-05
   2.974221887668521E-05   3.011632993553655E-05   3.049514673221243E-05
   3.087872845760810E-05   3.126713504714854E-05   3.166042719015357E-05
   3.205866633932071E-05   3.246191472032719E-05   3.287023534155304E-05
   3.328369200392602E-05   3.370234931089081E-05   3.412627267850339E-05
   3.455552834565240E-05   3.499018338440921E-05   3.543030571050791E-05
   3.587596409395740E-05   3.632722816978680E-05   3.678416844892600E-05
   3.724685632922335E-05   3.771536410660146E-05   3.818976498635374E-05
   3.867013309458281E-05   3.915654348978288E-05   3.964907217456786E-05
   4.014779610754679E-05   4.065279321534884E-05   4.116414240479954E-05
   4.168192357525006E-05   4.220621763106177E-05   4.273710649424756E-05
   4.327467311727239E-05   4.381900149601480E-05   4.437017668289138E-05
   4.492828480014652E-05   4.549341305330899E-05   4.606564974481812E-05
   4.664508428782115E-05   4.723180722014428E-05   4.782591021843946E-05
   4.842748611250884E-05   4.903662889980979E-05   4.965343376014212E-05
   5.027799707052014E-05   5.091041642023184E-05   5.155079062608725E-05
   5.219921974785889E-05   5.285580510391626E-05   5.352064928705704E-05
   5.419385618053759E-05   5.487553097430460E-05   5.556578018143149E-05
   5.626471165476118E-05   5.697243460375831E-05   5.768905961157366E-05
   5.841469865232261E-05   5.914946510858163E-05   5.989347378910438E-05
   6.064684094676084E-05   6.140968429670224E-05   6.218212303475397E-05
   6.296427785604041E-05   6.375627097384366E-05   6.455822613869966E-05
   6.537026865773461E-05   6.619252541424420E-05   6.702512488751949E-05
   6.786819717292212E-05   6.872187400221191E-05   6.958628876413032E-05
   7.046157652524253E-05   7.134787405104201E-05   7.224531982732033E-05
   7.315405408180587E-05   7.407421880607483E-05   7.500595777773740E-05
   7.594941658290355E-05   7.690474263893106E-05   7.787208521745976E-05
   7.885159546773574E-05   7.984342644022837E-05   8.084773311054502E-05
   8.186467240364616E-05   8.289440321836527E-05   8.393708645223729E-05
   8.499288502663882E-05   8.606196391224512E-05   8.714449015480714E-05
   8.824063290125261E-05   8.935056342611595E-05   9.047445515829974E-05
   9.161248370817371E-05   9.276482689501414E-05   9.393166477478836E-05
   9.511317966828917E-05   9.630955618962241E-05   9.752098127505359E-05
   9.874764421221699E-05   9.998973666969209E-05   1.012474527269526E-04
   1.025209889046913E-04   1.038105441955269E-04   1.051163200950972E-04
   1.064385206335431E-04   1.077773524073890E-04   1.091330246118232E-04
   1.105057490733859E-04   1.118957402830670E-04   1.133032154298209E-04
   1.147283944345030E-04   1.161714999842322E-04   1.176327575671867E-04
   1.191123955078368E-04   1.206106450026209E-04   1.221277401560711E-04
   1.236639180173914E-04   1.252194186174981E-04   1.267944850065247E-04
   1.283893632917989E-04   1.300043026762979E-04   1.316395554975856E-04
   1.332953772672426E-04   1.349720267107892E-04   1.366697658081120E-04
   1.383888598343993E-04   1.401295774015899E-04   1.418921905003454E-04
   1.436769745425484E-04   1.454842084043367E-04   1.473141744696784E-04
   1.491671586744937E-04   1.510434505513350E-04   1.529433432746251E-04
   1.548671337064675E-04   1.568151224430314E-04   1.587876138615197E-04
   1.607849161677298E-04   1.628073414442106E-04   1.648552056990259E-04
   1.669288289151326E-04   1.690285351003763E-04   1.711546523381209E-04
   1.733075128385101E-04   1.754874529903770E-04   1.776948134138060E-04
   1.799299390133535E-04   1.821931790319423E-04   1.844848871054298E-04
   1.868054213178647E-04   1.891551442574395E-04   1.915344230731432E-04
   1.939436295321321E-04   1.963831400778168E-04   1.988533358886831E-04
   2.013546029378526E-04   2.038873320533900E-04   2.064519189793728E-04
   2.090487644377259E-04   2.116782741908351E-04   2.143408591049499E-04
   2.170369352143793E-04   2.197669237865012E-04   2.225312513875840E-04
   2.253303499494393E-04   2.281646568369128E-04   2.310346149162212E-04
   2.339406726241540E-04   2.368832840381404E-04   2.398629089472003E-04
   2.428800129237885E-04   2.459350673965389E-04   2.490285497239290E-04
   2.521609432688659E-04   2.553327374742138E-04   2.585444279392710E-04
   2.617965164972060E-04   2.650895112934730E-04   2.684239268652084E-04
   2.718002842216291E-04   2.752191109254418E-04   2.786809411752737E-04
   2.821863158891453E-04   2.857357827889871E-04   2.893298964862234E-04
   2.929692185684325E-04   2.966543176870928E-04   3.003857696464399E-04
   3.041641574934339E-04   3.079900716088627E-04   3.118641097995916E-04
   3.157868773919686E-04   3.197589873264118E-04   3.237810602531795E-04
   3.278537246293492E-04   3.319776168170160E-04   3.361533811827241E-04
   3.403816701981514E-04   3.446631445420591E-04   3.489984732035240E-04
   3.533883335864700E-04   3.578334116155128E-04   3.623344018431385E-04
   3.668920075582272E-04   3.715069408959443E-04   3.761799229490133E-04
   3.809116838803869E-04   3.857029630373379E-04   3.905545090669822E-04
   3.954670800332574E-04   4.004414435353720E-04   4.054783768277432E-04
   4.105786669414462E-04   4.157431108071875E-04   4.209725153798282E-04
   4.262676977644724E-04   4.316294853441405E-04   4.370587159090508E-04
   4.425562377875247E-04   4.481229099785405E-04   4.537596022859537E-04
   4.594671954544049E-04   4.652465813069394E-04   4.710986628843546E-04
   4.770243545863031E-04   4.830245823141694E-04   4.891002836157431E-04
   4.952524078317143E-04   5.014819162440082E-04   5.077897822259878E-04
   5.141769913945467E-04   5.206445417641121E-04   5.271934439025879E-04
   5.338247210892568E-04   5.405394094746705E-04   5.473385582425509E-04
   5.542232297737253E-04   5.611944998121281E-04   5.682534576328856E-04
   5.754012062125186E-04   5.826388624012855E-04   5.899675570976902E-04
   5.973884354251901E-04   6.049026569111214E-04   6.125113956678787E-04
   6.202158405763736E-04   6.280171954717972E-04   6.359166793317244E-04
   6.439155264665796E-04   6.520149867125014E-04   6.602163256266321E-04
   6.685208246848622E-04   6.769297814820659E-04   6.854445099348503E-04
   6.940663404868595E-04   7.027966203166590E-04   7.116367135482336E-04
   7.205880014641365E-04   7.296518827213159E-04   7.388297735696584E-04
   7.481231080732824E-04   7.575333383346107E-04   7.670619347212676E-04
   7.767103860958245E-04   7.864802000484380E-04   7.963729031324159E-04
   8.063900411027410E-04   8.165331791576022E-04   8.268039021829565E-04
   8.372038150001720E-04   8.477345426167860E-04   8.583977304804128E-04
   8.691950447358513E-04   8.801281724854210E-04   8.911988220525760E-04
   9.024087232488341E-04   9.137596276440655E-04   9.252533088401747E-04
   9.368915627482326E-04   9.486762078690906E-04   9.606090855775241E-04
   9.726920604099543E-04   9.849270203557809E-04   9.973158771523878E-04
   1.009860566583854E-03   1.022563048783426E-03   1.035425308539792E-03
   1.048449355607206E-03   1.061637225019521E-03   1.074990977408163E-03
   1.088512699324110E-03   1.102204503563924E-03   1.116068529499872E-03
   1.130106943414213E-03   1.144321938837683E-03   1.158715736892237E-03
   1.173290586638107E-03   1.188048765425217E-03   1.202992579249029E-03
   1.218124363110856E-03   1.233446481382711E-03   1.248961328176749E-03
   1.264671327719347E-03   1.280578934729895E-03   1.296686634804352E-03
   1.312996944803626E-03   1.329512413246840E-03   1.346235620709537E-03
   1.363169180226908E-03   1.380315737702079E-03   1.397677972319539E-03
   1.415258596963772E-03   1.433060358643148E-03   1.451086038919145E-03
   1.469338454340981E-03   1.487820456885698E-03   1.506534934403800E-03
   1.525484811070471E-03   1.544673047842495E-03   1.564102642920906E-03
   1.583776632219464E-03   1.603698089839026E-03   1.623870128547874E-03
   1.644295900268098E-03   1.664978596568084E-03   1.685921449161208E-03
   1.707127730410798E-03   1.728600753841444E-03   1.750343874656743E-03
   1.772360490263559E-03   1.794654040802873E-03   1.817228009687316E-03
   1.840085924145452E-03   1.863231355772919E-03   1.886667921090500E-03
   1.910399282109206E-03   1.934429146902478E-03   1.958761270185582E-03
   1.983399453902283E-03   2.008347547818914E-03   2.033609450125907E-03
   2.059189108046890E-03   2.085090518455460E-03   2.111317728499689E-03
   2.137874836234505E-03   2.164765991262022E-03   2.191995395379924E-03
   2.219567303238004E-03   2.247486023002960E-03   2.275755917031557E-03
   2.304381402552250E-03   2.333366952355392E-03   2.362717095492111E-03
   2.392436417981988E-03   2.422529563529624E-03   2.453001234250236E-03
   2.483856191404367E-03   2.515099256141852E-03   2.546735310255118E-03
   2.578769296941985E-03   2.611206221578046E-03   2.644051152498767E-03
   2.677309221791431E-03   2.710985626097029E-03   2.745085627422247E-03
   2.779614553961671E-03   2.814577800930317E-03   2.849980831406665E-03
   2.885829177186251E-03   2.922128439646038E-03   2.958884290619635E-03
   2.996102473283537E-03   3.033788803054509E-03   3.071949168498250E-03
   3.110589532249497E-03   3.149715931943703E-03   3.189334481160419E-03
   3.229451370378570E-03   3.270072867943712E-03   3.311205321047487E-03
   3.352855156719374E-03   3.395028882830932E-03   3.437733089112675E-03
   3.480974448183715E-03   3.524759716594381E-03   3.569095735881944E-03
   3.613989433639617E-03   3.659447824599019E-03   3.705478011726218E-03
   3.752087187331604E-03   3.799282634193689E-03   3.847071726697066E-03
   3.895461931984670E-03   3.944460811124526E-03   3.994076020291188E-03
   4.044315311962031E-03   4.095186536128588E-03   4.146697641523141E-03
   4.198856676860704E-03   4.251671792096665E-03   4.305151239700236E-03
   4.359303375943905E-03   4.414136662209140E-03   4.469659666308476E-03
   4.525881063824266E-03   4.582809639464254E-03   4.640454288434204E-03
   4.698824017827804E-03   4.757927948034021E-03   4.817775314162198E-03
   4.878375467485052E-03   4.939737876899829E-03   5.001872130407851E-03
   5.064787936612637E-03   5.128495126236909E-03   5.193003653658660E-03
   5.258323598466539E-03   5.324465167034826E-03   5.391438694118170E-03
   5.459254644466438E-03   5.527923614459843E-03   5.597456333764650E-03
   5.667863667009727E-03   5.739156615484132E-03   5.811346318856112E-03
   5.884444056913688E-03   5.958461251327147E-03   6.033409467433714E-03
   6.109300416044635E-03   6.186145955275031E-03   6.263958092396750E-03
   6.342748985714523E-03   6.422530946465742E-03   6.503316440744087E-03
   6.585118091447398E-03   6.667948680250026E-03   6.751821149599982E-03
   6.836748604741258E-03   6.922744315761497E-03   7.009821719665505E-03
   7.097994422474807E-03   7.187276201353593E-03   7.277681006761475E-03
   7.369222964633221E-03   7.461916378585991E-03   7.555775732154303E-03
   7.650815691053101E-03   7.747051105469339E-03   7.844497012382306E-03
   7.943168637913209E-03   8.043081399704288E-03   8.144250909327839E-03
   8.246692974725588E-03   8.350423602678667E-03   8.455459001308731E-03
   8.561815582610514E-03   8.669509965016222E-03   8.778558975992229E-03
   8.888979654668351E-03   9.000789254500282E-03   9.114005245965477E-03
   9.228645319292936E-03   9.344727387227365E-03   9.462269587828046E-03
   9.581290287302960E-03   9.701808082878554E-03   9.823841805705570E-03
   9.947410523801496E-03   1.007253354502993E-02   1.019923042011751E-02
   1.032752094570872E-02   1.045742516745920E-02   1.058896338316789E-02
   1.072215614594863E-02   1.085702426744156E-02   1.099358882106507E-02
   1.113187114530848E-02   1.127189284706633E-02   1.141367580501438E-02
   1.155724217302827E-02   1.170261438364508E-02   1.184981515156849E-02
   1.199886747721797E-02   1.214979465032265E-02   1.230262025356040E-02
   1.245736816624263E-02   1.261406256804555E-02   1.277272794278824E-02
   1.293338908225831E-02   1.309607109008567E-02   1.326079938566502E-02
   1.342759970812767E-02   1.359649812036339E-02   1.376752101309271E-02
   1.394069510899057E-02   1.411604746686177E-02   1.429360548586897E-02
   1.447339690981392E-02   1.465544983147239E-02   1.483979269698376E-02
   1.502645431029584E-02   1.521546383766544E-02   1.540685081221579E-02
   1.560064513855103E-02   1.579687709742893E-02   1.599557735049230E-02
   1.619677694505993E-02   1.640050731897783E-02   1.660680030553142E-02
   1.681568813841954E-02   1.702720345679107E-02   1.724137931034483E-02
   1.745824916449370E-02   1.767784690559361E-02   1.790020684623837E-02
   1.812536373062112E-02   1.835335273996309E-02   1.858420949801089E-02
   1.881797007660262E-02   1.905467100130428E-02   1.929434925711692E-02
   1.953704229425563E-02   1.978278803400125E-02   2.003162487462558E-02
   2.028359169739122E-02   2.053872787262688E-02   2.079707326587898E-02
   2.105866824414086E-02   2.132355368216009E-02   2.159177096882526E-02
   2.186336201363311E-02   2.213836925323692E-02   2.241683565807744E-02
   2.269880473909693E-02   2.298432055453799E-02   2.327342771682766E-02
   2.356617139954821E-02   2.386259734449572E-02   2.416275186882713E-02
   2.446668187229755E-02   2.477443484458837E-02   2.508605887272761E-02
   2.540160264860372E-02   2.572111547657363E-02   2.604464728116678E-02
   2.637224861488586E-02   2.670397066610574E-02   2.703986526707188E-02
   2.737998490199903E-02   2.772438271527214E-02   2.807311251975019E-02
   2.842622880517462E-02   2.878378674668350E-02   2.914584221343262E-02
   2.951245177732527E-02   2.988367272185166E-02   3.025956305103963E-02
   3.064018149851791E-02   3.102558753669326E-02   3.141584138604327E-02
   3.181100402452588E-02   3.221113719710728E-02   3.261630342540983E-02
   3.302656601748098E-02   3.344198907768543E-02   3.386263751672153E-02
   3.428857706176365E-02   3.471987426673236E-02   3.515659652269337E-02
   3.559881206838772E-02   3.604659000089409E-02   3.650000028642543E-02
   3.695911377126137E-02   3.742400219281798E-02   3.789473819085695E-02
   3.837139531883568E-02   3.885404805540014E-02   3.934277181602248E-02
   3.983764296478456E-02   4.033873882631021E-02   4.084613769784727E-02
   4.135991886150169E-02   4.188016259662566E-02   4.240695019236122E-02
   4.294036396034193E-02   4.348048724755431E-02   4.402740444936080E-02
   4.458120102268701E-02   4.514196349937417E-02   4.570977949970013E-02
   4.628473774607021E-02   4.686692807688009E-02   4.745644146055357E-02
   4.805337000975606E-02   4.865780699578792E-02   4.926984686315803E-02
   4.988958524434071E-02   5.051711897471905E-02   5.115254610771498E-02
   5.179596593011090E-02   5.244747897756320E-02   5.310718705031088E-02
   5.377519322908268E-02   5.445160189120291E-02   5.513651872690128E-02
   5.583005075582695E-02   5.653230634377023E-02   5.724339521959571E-02
   5.796342849238673E-02   5.869251866880720E-02   5.943077967068064E-02
   6.017832685279037E-02   6.093527702090471E-02   6.170174845002725E-02
   6.247786090287829E-02   6.326373564860770E-02   6.405949548174317E-02
   6.486526474137784E-02   6.568116933059763E-02   6.650733673615471E-02
   6.734389604838716E-02   6.819097798138926E-02   6.904871489343671E-02
   6.991724080766683E-02   7.079669143302088E-02   7.168720418544847E-02
   7.258891820937861E-02   7.350197439946245E-02   7.442651542258698E-02
   7.536268574016822E-02   7.631063163072306E-02   7.727050121272525E-02
   7.824244446775012E-02   7.922661326390845E-02   8.022316137957705E-02
   8.123224452742663E-02   8.225402037875176E-02   8.328864858810833E-02
   8.433629081825873E-02   8.539711076543298E-02   8.647127418490626E-02
   8.755894891689796E-02   8.866030491279812E-02   8.977551426172156E-02
   9.090475121739811E-02   9.204819222539964E-02   9.320601595070978E-02
   9.437840330564147E-02   9.556553747810387E-02   9.676760396022681E-02
   9.798479057734392E-02   9.921728751734019E-02   1.004652873603703E-01
   1.017289851089486E-01   1.030085782184193E-01   1.043042666278095E-01
   1.056162527910687E-01   1.069447417087047E-01   1.082899409598132E-01
   1.096520607345143E-01   1.110313138667942E-01   1.124279158677606E-01
   1.138420849593178E-01   1.152740421082633E-01   1.167240110608151E-01
   1.181922183775721E-01   1.196788934689144E-01   1.211842686308500E-01
   1.227085790813103E-01   1.242520629969046E-01   1.258149615501351E-01
   1.273975189470802E-01   1.289999824655532E-01   1.306226024937388E-01
   1.322656325693177E-01   1.339293294190824E-01   1.356139529990499E-01
   1.373197665350824E-01   1.390470365640151E-01   1.407960329753042E-01
   1.425670290531978E-01   1.443603015194356E-01   1.461761305764893E-01
   1.480147999513430E-01   1.498765969398276E-01   1.517618124515106E-01
   1.536707410551506E-01   1.556036810247264E-01   1.575609343860401E-01
   1.595428069639119E-01   1.615496084299644E-01   1.635816523510091E-01
   1.656392562380433E-01   1.677227415958601E-01   1.698324339732859E-01
   1.719686630140470E-01   1.741317625082768E-01   1.763220704446726E-01
   1.785399290633051E-01   1.807856849090961E-01   1.830596888859657E-01
   1.853622963116613E-01   1.876938669732784E-01   1.900547651834759E-01
   1.924453598374028E-01   1.948660244703377E-01   1.973171373160538E-01
   1.997990813659207E-01   2.023122444287451E-01   2.048570191913689E-01
   2.074338032800265E-01   2.100429993224737E-01   2.126850150109011E-01
   2.153602631656347E-01   2.180691617996418E-01   2.208121341838455E-01
   2.235896089132609E-01   2.264020199739660E-01   2.292498068109101E-01
   2.321334143965812E-01   2.350532933005304E-01   2.380098997597775E-01
   2.410036957500974E-01   2.440351490582036E-01   2.471047333548440E-01
   2.502129282688090E-01   2.533602194618783E-01   2.565470987047043E-01
   2.597740639536516E-01   2.630416194286065E-01   2.663502756917591E-01
   2.697005497273823E-01   2.730929650226109E-01   2.765280516492358E-01
   2.800063463465320E-01   2.835283926051217E-01   2.870947407518991E-01
   2.907059480360181E-01   2.943625787159631E-01   2.980652041477184E-01
   3.018144028740395E-01   3.056107607148559E-01   3.094548708588044E-01
   3.133473339559150E-01   3.172887582114667E-01   3.212797594810175E-01
   3.253209613666359E-01   3.294129953143391E-01   3.335565007127555E-01
   3.377521249930348E-01   3.420005237300057E-01   3.463023607446150E-01
   3.506583082076488E-01   3.550690467447593E-01   3.595352655428178E-01
   3.640576624575970E-01   3.686369441228163E-01   3.732738260605530E-01
   3.779690327930426E-01   3.827232979558908E-01   3.875373644127004E-01
   3.924119843711505E-01   3.973479195005276E-01   4.023459410507366E-01
   4.074068299728146E-01   4.125313770409509E-01   4.177203829760514E-01
   4.229746585708513E-01   4.282950248166008E-01   4.336823130313517E-01
   4.391373649898465E-01   4.446610330550528E-01   4.502541803113447E-01
   4.559176806993587E-01   4.616524191525544E-01   4.674592917354812E-01
   4.733392057837948E-01   4.792930800460292E-01   4.853218448271492E-01
   4.914264421339193E-01   4.976078258220868E-01   5.038669617454300E-01
   5.102048279066721E-01   5.166224146102936E-01   5.231207246172752E-01
   5.297007733017748E-01   5.363635888097873E-01   5.431102122197925E-01
   5.499416977054224E-01   5.568591127001848E-01   5.638635380642444E-01
   5.709560682533157E-01   5.781378114896718E-01   5.854098899353026E-01
   5.927734398672626E-01   6.002296118552077E-01   6.077795709411817E-01
   6.154244968216536E-01   6.231655840318437E-01   6.310040421323799E-01
   6.389410958982861E-01   6.469779855103621E-01   6.551159667489621E-01
   6.633563111902092E-01   6.717003064046900E-01   6.801492561586302E-01
   6.887044806176196E-01   6.973673165528868E-01   7.061391175501690E-01
   7.150212542212210E-01   7.240151144179656E-01   7.331221034493584E-01
   7.423436443009649E-01   7.516811778573019E-01   7.611361631269877E-01
   7.707100774707044E-01   7.804044168320476E-01   7.902206959712675E-01
   8.001604487019478E-01   8.102252281306784E-01   8.204166068997190E-01
   8.307361774327382E-01   8.411855521836287E-01   8.517663638884515E-01
   8.624802658205657E-01   8.733289320489426E-01   8.843140576997535E-01
   8.954373592212326E-01   9.067005746518698E-01   9.181054638919948E-01
   9.296538089787512E-01   9.413474143645558E-01   9.531881071990429E-01
   9.651777376145544E-01   9.773181790152392E-01   9.896113283697627E-01
   1.002059106507724E+00   1.014663458419784E+00   1.027426353561569E+00
   1.040349786161415E+00   1.053435775531955E+00   1.066686366385653E+00
   1.080103629154292E+00   1.093689660312472E+00   1.107446582705206E+00
   1.121376545879604E+00   1.135481726420754E+00   1.149764328291814E+00
   1.164226583178382E+00   1.178870750837211E+00   1.193699119449287E+00
   1.208714005977377E+00   1.223917756528051E+00   1.239312746718260E+00
   1.254901382046547E+00   1.270686098268894E+00   1.286669361779326E+00
   1.302853669995288E+00   1.319241551747860E+00   1.335835567676913E+00
   1.352638310631192E+00   1.369652406073471E+00   1.386880512490781E+00
   1.404325321809796E+00   1.421989559817467E+00   1.439875986586919E+00
   1.457987396908724E+00   1.476326620727598E+00   1.494896523584567E+00
   1.513700007064740E+00   1.532740009250661E+00   1.552019505181411E+00
   1.571541507317456E+00   1.591309066011343E+00   1.611325269984341E+00
   1.631593246809037E+00   1.652116163398050E+00   1.672897226498852E+00
   1.693939683194829E+00   1.715246821412654E+00   1.736821970436019E+00
   1.758668501425857E+00   1.780789827947084E+00   1.803189406501969E+00
   1.825870737070242E+00   1.848837363655941E+00   1.872092874841200E+00
   1.895640904346959E+00   1.919485131600730E+00   1.943629282311540E+00
   1.968077129052052E+00   1.992832491848063E+00   2.017899238775378E+00
   2.043281286564195E+00   2.068982601211130E+00   2.095007198598879E+00
   2.121359145123733E+00   2.148042558330956E+00   2.175061607558141E+00
   2.202420514586708E+00   2.230123554301534E+00   2.258175055358941E+00
   2.286579400863046E+00   2.315341029050613E+00   2.344464433984571E+00
   2.373954166256185E+00   2.403814833696123E+00   2.434051102094431E+00
   2.464667695929552E+00   2.495669399106571E+00   2.527061055704675E+00
   2.558847570734079E+00   2.591033910902431E+00   2.623625105390856E+00
   2.656626246639809E+00   2.690042491144743E+00   2.723879060261853E+00
   2.758141241023908E+00   2.792834386966351E+00   2.827963918963827E+00
   2.863535326077174E+00   2.899554166411128E+00   2.936026067982779E+00
   2.972956729600937E+00   3.010351921756628E+00   3.048217487524697E+00
   3.086559343476839E+00   3.125383480606058E+00   3.164695965262758E+00
   3.204502940102661E+00   3.244810625046560E+00   3.285625318252241E+00
   3.326953397098562E+00   3.368801319181913E+00   3.411175623325271E+00
   3.454082930599859E+00   3.497529945359739E+00   3.541523456289368E+00
   3.586070337464321E+00   3.631177549425427E+00   3.676852140266311E+00
   3.723101246734726E+00   3.769932095347658E+00   3.817352003520468E+00
   3.865368380710298E+00   3.913988729573760E+00   3.963220647139290E+00
   4.013071825994177E+00   4.063550055486528E+00   4.114663222942411E+00
   4.166419314898220E+00   4.218826418348628E+00   4.271892722010178E+00
   4.325626517600769E+00   4.380036201135298E+00   4.435130274237499E+00
   4.490917345468393E+00   4.547406131671367E+00   4.604605459334175E+00
   4.662524265968155E+00   4.721171601504665E+00   4.780556629709206E+00
   4.840688629613267E+00   4.901576996964154E+00   4.963231245693161E+00
   5.025661009402072E+00   5.088876042868488E+00   5.152886223570010E+00
   5.217701553227584E+00   5.283332159368355E+00   5.349788296908041E+00
   5.417080349753348E+00   5.485218832424449E+00   5.554214391697871E+00
   5.624077808270143E+00   5.694819998442222E+00   5.766452015825259E+00
   5.838985053067717E+00   5.912430443604213E+00   5.986799663426467E+00
   6.062104332876358E+00   6.138356218461708E+00   6.215567234694788E+00
   6.293749445953947E+00   6.372915068368780E+00   6.453076471728830E+00
   6.534246181416475E+00   6.616436880364004E+00   6.699661411035324E+00
   6.783932777432698E+00   6.869264147128550E+00   6.955668853323020E+00
   7.043160396927250E+00   7.131752448672910E+00   7.221458851248350E+00
   7.312293621461458E+00   7.404270952429895E+00   7.497405215798770E+00
   7.591710963986189E+00   7.687202932457200E+00   7.783896042026130E+00
   7.881805401188085E+00   7.980946308479647E+00   8.081334254869258E+00
   8.182984926177809E+00   8.285914205529473E+00   8.390138175833572E+00
   8.495673122297530E+00   8.602535534971414E+00   8.710742111324647E+00
   8.820309758854901E+00   8.931255597730035E+00   9.043596963463111E+00
   9.157351409621054E+00   9.272536710567541E+00   9.389170864240162E+00
   9.507272094962737E+00   9.626858856292863E+00   9.747949833905261E+00
   9.870563948511585E+00   9.994720358816663E+00   1.012043846451222E+01
   1.024773790930807E+01   1.037663858400142E+01   1.050716062958497E+01
   1.063932444039386E+01   1.077315066729243E+01   1.090866022090093E+01
   1.104587427486277E+01   1.118481426915309E+01   1.132550191342862E+01
   1.146795919042003E+01   1.161220835936671E+01   1.175827195949475E+01
   1.190617281353887E+01   1.205593403130838E+01   1.220757901329826E+01
   1.236113145434551E+01   1.251661534733140E+01   1.267405498693059E+01
   1.283347497340702E+01   1.299490021645795E+01   1.315835593910606E+01
   1.332386768164052E+01   1.349146130560787E+01   1.366116299785280E+01
   1.383299927460998E+01   1.400699698564731E+01   1.418318331846108E+01
   1.436158580252429E+01   1.454223231358799E+01   1.472515107803710E+01
   1.491037067730072E+01   1.509792005231803E+01   1.528782850806050E+01
   1.548012571811066E+01   1.567484172929883E+01   1.587200696639795E+01
   1.607165223687738E+01   1.627380873571689E+01   1.647850805028065E+01
   1.668578216525304E+01   1.689566346763628E+01   1.710818475181080E+01
   1.732337922465969E+01   1.754128051075709E+01   1.776192265762231E+01