<UPF version="2.0.1">
  <PP_INFO>
    Generated using "atomic" code by A. Dal Corso  v.7.2
    Author: ADC
    Generation date: 22Sep2023
    Pseudopotential type: USPP
    Element: Cl
    Functional: PBESOL
    Suggested minimum cutoff for wavefunctions:  45. Ry
    Suggested minimum cutoff for charge density: 222. Ry
    The Pseudo was generated with a Scalar-Relativistic Calculation
    Local Potential by smoothing AE potential with Bessel fncs, cutoff radius:   1.8000
    Valence configuration: 
    nl pn  l   occ       Rcut    Rcut US       E pseu
    3S  1  0  2.00      1.200      1.600    -1.515412
    3P  2  1  5.00      1.300      1.600    -0.629257
    Generation configuration:
    3S  1  0  2.00      1.200      1.600    -1.515409
    3S  1  0  0.00      1.200      1.600     6.200000
    3P  2  1  5.00      1.300      1.600    -0.629254
    3P  2  1  0.00      1.300      1.600     3.200000
    3D  3  2  0.00      1.300      1.600     0.100000
    3D  3  2  0.00      1.300      1.600     0.300000
    Pseudization used: troullier-martins
    <PP_INPUTFILE>
@input
title='Cl',
zed=17.,
rel=1,
config='[Ne] 3s2 3p5 3d-1',
iswitch=3,
dft='PBESOL'
/
@inputp
lpaw=.false.,
pseudotype=3,
file_pseudopw='Cl.pbesol-n-rrkjus_psl.1.0.0.UPF',
author='ADC',
lloc=-1,
rcloc=1.8,
which_augfun='PSQ',
rmatch_augfun_nc=.true.,
nlcc=.true.,
new_core_ps=.true.,
rcore=1.0,
tm=.true.
/
6
3S  1  0  2.00  0.00  1.20  1.60  0.0
3S  1  0  0.00  6.20  1.20  1.60  0.0
3P  2  1  5.00  0.00  1.30  1.60  0.0
3P  2  1  0.00  3.20  1.30  1.60  0.0
3D  3  2  0.00  0.10  1.30  1.60  0.0
3D  3  2  0.00  0.30  1.30  1.60  0.0
    </PP_INPUTFILE>
  </PP_INFO>
    <!-- END OF HUMAN READABLE SECTION -->
  <PP_HEADER generated="Generated using 'atomic' code by A. Dal Corso  v.7.2" author="ADC" date="22Sep2023" comment="" element="Cl" pseudo_type="USPP" relativistic="scalar" is_ultrasoft="true" is_paw="false" is_coulomb="false" has_so="false" has_wfc="false" has_gipaw="false" paw_as_gipaw="false" core_correction="true" functional="PBESOL" z_valence="7.0000000000000000" total_psenergy="-34.343815829896641" wfc_cutoff="45.388643927649376" rho_cutoff="222.29804185158963" l_max="2" l_max_rho="4" l_local="-1" mesh_size="1157" number_of_wfc="2" number_of_proj="6"/>
  <PP_MESH mesh="1157" dx="1.2500000000000001E-002" xmin="-7.0000000000000000" rmax="100.00000000000000" zmesh="17.000000000000000">
    <PP_R>
   5.364011562085390E-05   5.431482521582484E-05   5.499802161274013E-05
   5.568981156242671E-05   5.639030315847176E-05   5.709960585411228E-05
   5.781783047933757E-05   5.854508925820655E-05   5.928149582638297E-05
   6.002716524889145E-05   6.078221403809630E-05   6.154676017190697E-05
   6.232092311221236E-05   6.310482382354687E-05   6.389858479199164E-05
   6.470233004431283E-05   6.551618516734137E-05   6.634027732759602E-05
   6.717473529115338E-05   6.801968944376811E-05   6.887527181124556E-05
   6.974161608007134E-05   7.061885761830005E-05   7.150713349670675E-05
   7.240658251020477E-05   7.331734519953232E-05   7.423956387321261E-05
   7.517338262978968E-05   7.611894738034401E-05   7.707640587129177E-05
   7.804590770747009E-05   7.902760437551334E-05   8.002164926752317E-05
   8.102819770503630E-05   8.204740696329405E-05   8.307943629581657E-05
   8.412444695928673E-05   8.518260223874680E-05   8.625406747311194E-05
   8.733901008100511E-05   8.843759958691603E-05   8.955000764769009E-05
   9.067640807935001E-05   9.181697688425483E-05   9.297189227860101E-05
   9.414133472026849E-05   9.532548693701804E-05   9.652453395504271E-05
   9.773866312787846E-05   9.896806416567889E-05   1.002129291648573E-04
   1.014734526381025E-04   1.027498315447717E-04   1.040422653216659E-04
   1.053509559141923E-04   1.066761078079185E-04   1.080179280605239E-04
   1.093766263341530E-04   1.107524149281751E-04   1.121455088123574E-04
   1.135561256604535E-04   1.149844858842157E-04   1.164308126678351E-04
   1.178953320028141E-04   1.193782727232785E-04   1.208798665417329E-04
   1.224003480852664E-04   1.239399549322138E-04   1.254989276492770E-04
   1.270775098291150E-04   1.286759481284050E-04   1.302944923063834E-04
   1.319333952638708E-04   1.335929130827886E-04   1.352733050661727E-04
   1.369748337786890E-04   1.386977650876608E-04   1.404423682046102E-04
   1.422089157273237E-04   1.439976836824461E-04   1.458089515686093E-04
   1.476430024001058E-04   1.495001227511093E-04   1.513806028004529E-04
   1.532847363769705E-04   1.552128210054072E-04   1.571651579529089E-04
   1.591420522760957E-04   1.611438128687276E-04   1.631707525099699E-04
   1.652231879132654E-04   1.673014397758216E-04   1.694058328287202E-04
   1.715366958876569E-04   1.736943619043204E-04   1.758791680184153E-04
   1.780914556103421E-04   1.803315703545378E-04   1.825998622734888E-04
   1.848966857924224E-04   1.872223997946863E-04   1.895773676778251E-04
   1.919619574103617E-04   1.943765415892931E-04   1.968214974983101E-04
   1.992972071667477E-04   2.018040574292785E-04   2.043424399863561E-04
   2.069127514654193E-04   2.095153934828665E-04   2.121507727068077E-04
   2.148193009206084E-04   2.175213950872313E-04   2.202574774143871E-04
   2.230279754205063E-04   2.258333220015390E-04   2.286739554985959E-04
   2.315503197664402E-04   2.344628642428406E-04   2.374120440187976E-04
   2.403983199096510E-04   2.434221585270845E-04   2.464840323520341E-04
   2.495844198085141E-04   2.527238053383729E-04   2.559026794769864E-04
   2.591215389299063E-04   2.623808866504707E-04   2.656812319183921E-04
   2.690230904193337E-04   2.724069843254850E-04   2.758334423771536E-04
   2.793029999653811E-04   2.828161992155992E-04   2.863735890723390E-04
   2.899757253850030E-04   2.936231709947186E-04   2.973164958222832E-04
   3.010562769572148E-04   3.048430987479250E-04   3.086775528930226E-04
   3.125602385337692E-04   3.164917623476953E-04   3.204727386433956E-04
   3.245037894565160E-04   3.285855446469471E-04   3.327186419972416E-04
   3.369037273122697E-04   3.411414545201260E-04   3.454324857743089E-04
   3.497774915571820E-04   3.541771507847388E-04   3.586321509126846E-04
   3.631431880438530E-04   3.677109670369742E-04   3.723362016168087E-04
   3.770196144856696E-04   3.817619374363463E-04   3.865639114664478E-04
   3.914262868941867E-04   3.963498234756157E-04   4.013352905233428E-04
   4.063834670267372E-04   4.114951417736477E-04   4.166711134736544E-04
   4.219121908828646E-04   4.272191929302877E-04   4.325929488457904E-04
   4.380342982896670E-04   4.435440914838397E-04   4.491231893447036E-04
   4.547724636176512E-04   4.604927970132808E-04   4.662850833453232E-04
   4.721502276703036E-04   4.780891464289536E-04   4.841027675894136E-04
   4.901920307922241E-04   4.963578874971489E-04   5.026013011318439E-04
   5.089232472423903E-04   5.153247136457311E-04   5.218067005840152E-04
   5.283702208808892E-04   5.350163000997543E-04   5.417459767040082E-04
   5.485603022193133E-04   5.554603413978948E-04   5.624471723849120E-04
   5.695218868869231E-04   5.766855903424604E-04   5.839394020947654E-04
   5.912844555666816E-04   5.987218984377570E-04   6.062528928235735E-04
   6.138786154573238E-04   6.216002578736856E-04   6.294190265949957E-04
   6.373361433197736E-04   6.453528451136170E-04   6.534703846024886E-04
   6.616900301684509E-04   6.700130661478457E-04   6.784407930319777E-04
   6.869745276703208E-04   6.956156034762717E-04   7.043653706355072E-04
   7.132251963169470E-04   7.221964648863786E-04   7.312805781227701E-04
   7.404789554372940E-04   7.497930340951217E-04   7.592242694399925E-04
   7.687741351216164E-04   7.784441233259377E-04   7.882357450082840E-04
   7.981505301294667E-04   8.081900278948319E-04   8.183558069963305E-04
   8.286494558576315E-04   8.390725828823091E-04   8.496268167051693E-04
   8.603138064467190E-04   8.711352219708471E-04   8.820927541457480E-04
   8.931881151081145E-04   9.044230385306725E-04   9.157992798930641E-04
   9.273186167561463E-04   9.389828490397425E-04   9.507937993038749E-04
   9.627533130335546E-04   9.748632589271326E-04   9.871255291882916E-04
   9.995420398217108E-04   1.012114730932434E-03   1.024845567029030E-03
   1.037736537330539E-03   1.050789656077296E-03   1.064006962845665E-03
   1.077390522866716E-03   1.090942427348934E-03   1.104664793804965E-03
   1.118559766382486E-03   1.132629516199231E-03   1.146876241682235E-03
   1.161302168911340E-03   1.175909551967025E-03   1.190700673282611E-03
   1.205677844000897E-03   1.220843404335279E-03   1.236199723935414E-03
   1.251749202257481E-03   1.267494268939104E-03   1.283437384178987E-03
   1.299581039121320E-03   1.315927756245035E-03   1.332480089757939E-03
   1.349240625995819E-03   1.366211983826563E-03   1.383396815059359E-03
   1.400797804859052E-03   1.418417672165698E-03   1.436259170119414E-03
   1.454325086490553E-03   1.472618244115303E-03   1.491141501336761E-03
   1.509897752451555E-03   1.528889928162079E-03   1.548120996034430E-03
   1.567593960962087E-03   1.587311865635440E-03   1.607277791017210E-03
   1.627494856823857E-03   1.647966222013048E-03   1.668695085277241E-03
   1.689684685543496E-03   1.710938302479557E-03   1.732459257006311E-03
   1.754250911816689E-03   1.776316671901088E-03   1.798659985079417E-03
   1.821284342539817E-03   1.844193279384170E-03   1.867390375180468E-03
   1.890879254522122E-03   1.914663587594319E-03   1.938747090747492E-03
   1.963133527078005E-03   1.987826707016150E-03   2.012830488921531E-03
   2.038148779685943E-03   2.063785535343826E-03   2.089744761690410E-03
   2.116030514907627E-03   2.142646902197896E-03   2.169598082425883E-03
   2.196888266768331E-03   2.224521719372064E-03   2.252502758020274E-03
   2.280835754807177E-03   2.309525136821166E-03   2.338575386836548E-03
   2.367991044013991E-03   2.397776704609778E-03   2.427937022693973E-03
   2.458476710877642E-03   2.489400541049195E-03   2.520713345120011E-03
   2.552420015779434E-03   2.584525507259260E-03   2.617034836107854E-03
   2.649953081973990E-03   2.683285388400553E-03   2.717036963628242E-03
   2.751213081409352E-03   2.785819081831819E-03   2.820860372153616E-03
   2.856342427647646E-03   2.892270792457270E-03   2.928651080462585E-03
   2.965488976157611E-03   3.002790235538495E-03   3.040560687002907E-03
   3.078806232260728E-03   3.117532847256224E-03   3.156746583101773E-03
   3.196453567023382E-03   3.236660003318074E-03   3.277372174323317E-03
   3.318596441398668E-03   3.360339245919723E-03   3.402607110284617E-03
   3.445406638933151E-03   3.488744519378748E-03   3.532627523253408E-03
   3.577062507365763E-03   3.622056414772484E-03   3.667616275863145E-03
   3.713749209458728E-03   3.760462423923975E-03   3.807763218293680E-03
   3.855658983413198E-03   3.904157203093273E-03   3.953265455279398E-03
   4.002991413235894E-03   4.053342846744858E-03   4.104327623320215E-03
   4.155953709437036E-03   4.208229171776307E-03   4.261162178485380E-03
   4.314761000454243E-03   4.369034012607876E-03   4.423989695214849E-03
   4.479636635212372E-03   4.535983527548042E-03   4.593039176538422E-03
   4.650812497244746E-03   4.709312516865917E-03   4.768548376149014E-03
   4.828529330817576E-03   4.889264753017798E-03   4.950764132782965E-03
   5.013037079516287E-03   5.076093323492382E-03   5.139942717377670E-03
   5.204595237769842E-03   5.270060986756748E-03   5.336350193494856E-03
   5.403473215807582E-03   5.471440541803735E-03   5.540262791516276E-03
   5.609950718561745E-03   5.680515211820522E-03   5.751967297138238E-03
   5.824318139048606E-03   5.897579042517868E-03   5.971761454711240E-03
   6.046876966781555E-03   6.122937315680391E-03   6.199954385992019E-03
   6.277940211790366E-03   6.356906978519371E-03   6.436867024896999E-03
   6.517832844843175E-03   6.599817089431984E-03   6.682832568868457E-03
   6.766892254490143E-03   6.852009280793943E-03   6.938196947488387E-03
   7.025468721571742E-03   7.113838239436276E-03   7.203319308998938E-03
   7.293925911858899E-03   7.385672205482195E-03   7.478572525413858E-03
   7.572641387517896E-03   7.667893490245394E-03   7.764343716931193E-03
   7.862007138119442E-03   7.960899013918395E-03   8.061034796384852E-03
   8.162430131938547E-03   8.265100863806952E-03   8.369063034500804E-03
   8.474332888320781E-03   8.580926873895731E-03   8.688861646752756E-03
   8.798154071919712E-03   8.908821226560393E-03   9.020880402642852E-03
   9.134349109641353E-03   9.249245077272216E-03   9.365586258264138E-03
   9.483390831163346E-03   9.602677203174023E-03   9.723464013034503E-03
   9.845770133929562E-03   9.969614676439423E-03   1.009501699152581E-02
   1.022199667355560E-02   1.035057356336244E-02   1.048076775134697E-02
   1.061259958061593E-02   1.074608965016087E-02   1.088125881807672E-02
   1.101812820482100E-02   1.115671919651384E-02   1.129705344827966E-02
   1.143915288763080E-02   1.158303971789377E-02   1.172873642167854E-02
   1.187626576439150E-02   1.202565079779259E-02   1.217691486359722E-02
   1.233008159712340E-02   1.248517493098489E-02   1.264221909883063E-02
   1.280123863913135E-02   1.296225839901376E-02   1.312530353814293E-02
   1.329039953265358E-02   1.345757217913074E-02   1.362684759864052E-02
   1.379825224081164E-02   1.397181288796813E-02   1.414755665931425E-02
   1.432551101517181E-02   1.450570376127098E-02   1.468816305309492E-02
   1.487291740027920E-02   1.505999567106648E-02   1.524942709681715E-02
   1.544124127657691E-02   1.563546818170157E-02   1.583213816054023E-02
   1.603128194317721E-02   1.623293064623372E-02   1.643711577772985E-02
   1.664386924200783E-02   1.685322334471706E-02   1.706521079786208E-02
   1.727986472491370E-02   1.749721866598475E-02   1.771730658307072E-02
   1.794016286535643E-02   1.816582233458941E-02   1.839432025052082E-02
   1.862569231641490E-02   1.885997468462770E-02   1.909720396225587E-02
   1.933741721685672E-02   1.958065198223998E-02   1.982694626433262E-02
   2.007633854711729E-02   2.032886779864556E-02   2.058457347712679E-02
   2.084349553709346E-02   2.110567443564422E-02   2.137115113876538E-02
   2.163996712773190E-02   2.191216440558900E-02   2.218778550371512E-02
   2.246687348846759E-02   2.274947196791186E-02   2.303562509863524E-02
   2.332537759264664E-02   2.361877472436275E-02   2.391586233768231E-02
   2.421668685314934E-02   2.452129527520638E-02   2.482973519953915E-02
   2.514205482051334E-02   2.545830293870515E-02   2.577852896852645E-02
   2.610278294594588E-02   2.643111553630716E-02   2.676357804224551E-02
   2.710022241170389E-02   2.744110124604992E-02   2.778626780829498E-02
   2.813577603141671E-02   2.848968052678604E-02   2.884803659270038E-02
   2.921090022302411E-02   2.957832811593770E-02   2.995037768279702E-02
   3.032710705710378E-02   3.070857510358920E-02   3.109484142741163E-02
   3.148596638347002E-02   3.188201108583454E-02   3.228303741729568E-02
   3.268910803903363E-02   3.310028640040918E-02   3.351663674887782E-02
   3.393822414002863E-02   3.436511444774918E-02   3.479737437451855E-02
   3.523507146182975E-02   3.567827410074315E-02   3.612705154257282E-02
   3.658147390970708E-02   3.704161220656532E-02   3.750753833069258E-02
   3.797932508399365E-02   3.845704618410867E-02   3.894077627593143E-02
   3.943059094327292E-02   3.992656672067146E-02   4.042878110535131E-02
   4.093731256933189E-02   4.145224057168904E-02   4.197364557097076E-02
   4.250160903776898E-02   4.303621346744951E-02   4.357754239304223E-02
   4.412568039829307E-02   4.468071313088053E-02   4.524272731579830E-02
   4.581181076890617E-02   4.638805241065157E-02   4.697154227996337E-02
   4.756237154832076E-02   4.816063253399897E-02   4.876641871649414E-02
   4.937982475112985E-02   5.000094648384697E-02   5.062988096617990E-02
   5.126672647042109E-02   5.191158250497620E-02   5.256454982991270E-02
   5.322573047270352E-02   5.389522774416930E-02   5.457314625462079E-02
   5.525959193020446E-02   5.595467202945377E-02   5.665849516004836E-02
   5.737117129578431E-02   5.809281179375777E-02   5.882352941176471E-02
   5.956343832591968E-02   6.031265414849584E-02   6.107129394598974E-02
   6.183947625741322E-02   6.261732111281526E-02   6.340495005203717E-02
   6.420248614370305E-02   6.501005400444990E-02   6.582777981839891E-02
   6.665579135687213E-02   6.749421799835720E-02   6.834319074872255E-02
   6.920284226168771E-02   7.007330685955053E-02   7.095472055417533E-02
   7.184722106824530E-02   7.275094785678149E-02   7.366604212893324E-02
   7.459264687004237E-02   7.553090686398478E-02   7.648096871579360E-02
   7.744298087456600E-02   7.841709365665903E-02   7.940345926917670E-02
   8.040223183375272E-02   8.141356741063245E-02   8.243762402305728E-02
   8.347456168195636E-02   8.452454241094855E-02   8.558773027165889E-02
   8.666429138935387E-02   8.775439397889828E-02   8.885820837103961E-02
   8.997590703902235E-02   9.110766462553724E-02   9.225365797000995E-02
   9.341406613623200E-02   9.458907044034022E-02   9.577885447914770E-02
   9.698360415883107E-02   9.820350772397901E-02   9.943875578700541E-02
   1.006895413579333E-01   1.019560598745527E-01   1.032385092329587E-01
   1.045370898184729E-01   1.058520045369535E-01   1.071834588465006E-01
   1.085316607895589E-01   1.098968210254248E-01   1.112791528631630E-01
   1.126788722949351E-01   1.140961980297503E-01   1.155313515276381E-01
   1.169845570342525E-01   1.184560416159104E-01   1.199460351950715E-01
   1.214547705862640E-01   1.229824835324622E-01   1.245294127419220E-01
   1.260957999254800E-01   1.276818898343202E-01   1.292879302982178E-01
   1.309141722642629E-01   1.325608698360711E-01   1.342282803134885E-01
   1.359166642327944E-01   1.376262854074113E-01   1.393574109691260E-01
   1.411103114098293E-01   1.428852606237817E-01   1.446825359504089E-01
   1.465024182176372E-01   1.483451917857735E-01   1.502111445919369E-01
   1.521005681950498E-01   1.540137578213942E-01   1.559510124107416E-01
   1.579126346630631E-01   1.598989310858262E-01   1.619102120418887E-01
   1.639467917979913E-01   1.660089885738647E-01   1.680971245919509E-01
   1.702115261277506E-01   1.723525235608062E-01   1.745204514263217E-01
   1.767156484674372E-01   1.789384576881568E-01   1.811892264069430E-01
   1.834683063109880E-01   1.857760535111629E-01   1.881128285976632E-01
   1.904789966963508E-01   1.928749275258043E-01   1.953009954550912E-01
   1.977575795622606E-01   2.002450636935775E-01   2.027638365234987E-01
   2.053142916154024E-01   2.078968274830867E-01   2.105118476530341E-01
   2.131597607274671E-01   2.158409804481910E-01   2.185559257612414E-01
   2.213050208823479E-01   2.240886953632154E-01   2.269073841586455E-01
   2.297615276944973E-01   2.326515719365045E-01   2.355779684599605E-01
   2.385411745202751E-01   2.415416531244242E-01   2.445798731032947E-01
   2.476563091849388E-01   2.507714420687542E-01   2.539257585005908E-01
   2.571197513488092E-01   2.603539196812905E-01   2.636287688434156E-01
   2.669448105370298E-01   2.703025629003935E-01   2.737025505891452E-01
   2.771453048582791E-01   2.806313636451531E-01   2.841612716535461E-01
   2.877355804387651E-01   2.913548484938302E-01   2.950196413367390E-01
   2.987305315988283E-01   3.024880991142525E-01   3.062929310105794E-01
   3.101456218005347E-01   3.140467734748929E-01   3.179969955965392E-01
   3.219969053957180E-01   3.260471278664720E-01   3.301482958643032E-01
   3.343010502050557E-01   3.385060397650430E-01   3.427639215824400E-01
   3.470753609599422E-01   3.514410315687248E-01   3.558616155537029E-01
   3.603378036401169E-01   3.648702952414630E-01   3.694597985687745E-01
   3.741070307412841E-01   3.788127178984744E-01   3.835775953135360E-01
   3.884024075082608E-01   3.932879083693689E-01   3.982348612663102E-01
   4.032440391705401E-01   4.083162247762962E-01   4.134522106229001E-01
   4.186527992185881E-01   4.239188031659097E-01   4.292510452886963E-01
   4.346503587606265E-01   4.401175872354168E-01   4.456535849786382E-01
   4.512592170012016E-01   4.569353591945163E-01   4.626828984673466E-01
   4.685027328843989E-01   4.743957718066397E-01   4.803629360333910E-01
   4.864051579462044E-01   4.925233816545450E-01   4.987185631433166E-01
   5.049916704222293E-01   5.113436836770590E-01   5.177755954228007E-01
   5.242884106587492E-01   5.308831470255371E-01   5.375608349641370E-01
   5.443225178768758E-01   5.511692522904668E-01   5.581021080210897E-01
   5.651221683415595E-01   5.722305301505816E-01   5.794283041441518E-01
   5.867166149891015E-01   5.940966014988267E-01   6.015694168112359E-01
   6.091362285689232E-01   6.167982191016218E-01   6.245565856109419E-01
   6.324125403574327E-01   6.403673108500088E-01   6.484221400377415E-01
   6.565782865040802E-01   6.648370246635052E-01   6.731996449606542E-01
   6.816674540719648E-01   6.902417751098361E-01   6.989239478293762E-01
   7.077153288377376E-01   7.166172918060867E-01   7.256312276842509E-01
   7.347585449180478E-01   7.440006696693660E-01   7.533590460390025E-01
   7.628351362923019E-01   7.724304210876488E-01   7.821463997078111E-01
   7.919845902942182E-01   8.019465300841626E-01   8.120337756510055E-01
   8.222479031473910E-01   8.325905085515181E-01   8.430632079165264E-01
   8.536676376229956E-01   8.644054546346436E-01   8.752783367572264E-01
   8.862879829006937E-01   8.974361133446577E-01   9.087244700071780E-01
   9.201548167169512E-01   9.317289394889078E-01   9.434486468032750E-01
   9.553157698881681E-01   9.673321630057096E-01   9.794997037417732E-01
   9.918202932993558E-01   1.004295856795639E+00   1.016928343562804E+00
   1.029719727452605E+00   1.042672007144803E+00   1.055787206459450E+00
   1.069067374673122E+00   1.082514586839122E+00   1.096130944111707E+00
   1.109918574074405E+00   1.123879631072451E+00   1.138016296549401E+00
   1.152330779388001E+00   1.166825316255314E+00   1.181502171952216E+00
   1.196363639767272E+00   1.211412041835061E+00   1.226649729499026E+00
   1.242079083678860E+00   1.257702515242550E+00   1.273522465383063E+00
   1.289541405999793E+00   1.305761840084804E+00   1.322186302113919E+00
   1.338817358442749E+00   1.355657607707682E+00   1.372709681231925E+00
   1.389976243436662E+00   1.407459992257362E+00   1.425163659565352E+00
   1.443090011594669E+00   1.461241849374285E+00   1.479622009165788E+00
   1.498233362906535E+00   1.517078818658415E+00   1.536161321062235E+00
   1.555483851797812E+00   1.575049430049892E+00   1.594861112979877E+00
   1.614921996203535E+00   1.635235214274688E+00   1.655803941174980E+00
   1.676631390809842E+00   1.697720817510649E+00   1.719075516543232E+00
   1.740698824622763E+00   1.762594120435119E+00   1.784764825164821E+00
   1.807214403029584E+00   1.829946361821627E+00   1.852964253455763E+00
   1.876271674524382E+00   1.899872266859454E+00   1.923769718101540E+00
   1.947967762276018E+00   1.972470180376527E+00   1.997280800955738E+00
   2.022403500723602E+00   2.047842205153062E+00   2.073600889093444E+00
   2.099683577391524E+00   2.126094345520408E+00   2.152837320216355E+00
   2.179916680123565E+00   2.207336656447118E+00   2.235101533614106E+00
   2.263215649943067E+00   2.291683398321883E+00   2.320509226894150E+00
   2.349697639754231E+00   2.379253197651026E+00   2.409180518700577E+00
   2.439484279107695E+00   2.470169213896589E+00   2.501240117650752E+00
   2.532701845262115E+00   2.564559312689618E+00   2.596817497727370E+00
   2.629481440782403E+00   2.662556245662280E+00   2.696047080372560E+00
   2.729959177924293E+00   2.764297837151727E+00   2.799068423540218E+00
   2.834276370064636E+00   2.869927178038262E+00   2.906026417972364E+00
   2.942579730446636E+00   2.979592826990510E+00   3.017071490975630E+00
   3.055021578519499E+00   3.093449019400497E+00   3.132359817984453E+00
   3.171760054162798E+00   3.211655884302602E+00   3.252053542208499E+00
   3.292959340096715E+00   3.334379669581404E+00   3.376321002673308E+00
   3.418789892791058E+00   3.461792975785145E+00   3.505336970974764E+00
   3.549428682197768E+00   3.594074998873728E+00   3.639282897080464E+00
   3.685059440644054E+00   3.731411782242549E+00   3.778347164523644E+00
   3.825872921236295E+00   3.873996478376688E+00   3.922725355348542E+00
   3.972067166138009E+00   4.022029620503424E+00   4.072620525179921E+00
   4.123847785099286E+00   4.175719404625114E+00   4.228243488803475E+00
   4.281428244629397E+00   4.335281982329168E+00   4.389813116658877E+00
   4.445030168219216E+00   4.500941764786817E+00   4.557556642662410E+00
   4.614883648035833E+00   4.672931738368313E+00   4.731709983792078E+00
   4.791227568527538E+00   4.851493792318418E+00   4.912518071884781E+00
   4.974309942394471E+00   5.036879058952980E+00   5.100235198112053E+00
   5.164388259397349E+00   5.229348266855196E+00   5.295125370618930E+00
   5.361729848494850E+00   5.429172107568111E+00   5.497462685828927E+00
   5.566612253819067E+00   5.636631616299228E+00   5.707531713937262E+00
   5.779323625017651E+00   5.852018567172586E+00   5.925627899134654E+00
   6.000163122511746E+00   6.075635883584168E+00   6.152057975124366E+00
   6.229441338239648E+00   6.307798064237915E+00   6.387140396517035E+00
   6.467480732477860E+00   6.548831625461315E+00   6.631205786709961E+00
   6.714616087354061E+00   6.799075560422803E+00   6.884597402880701E+00
   6.971194977689608E+00   7.058881815896798E+00   7.147671618749116E+00
   7.237578259833914E+00   7.328615787246791E+00   7.420798425786598E+00
   7.514140579178179E+00   7.608656832322881E+00   7.704361953577565E+00
   7.801270897062157E+00   7.899398804996207E+00   7.998761010065007E+00
   8.099373037815219E+00   8.201250609080892E+00   8.304409642439824E+00
   8.408866256700824E+00   8.514636773422421E+00   8.621737719463011E+00
   8.730185829563329E+00   8.839998048961235E+00   8.951191536039389E+00
   9.063783665006406E+00   9.177792028611478E+00   9.293234440893380E+00
   9.410128939963922E+00   9.528493790826374E+00   9.648347488229529E+00
   9.769708759557417E+00   9.892596567755614E+00   1.001703011429418E+01
   1.014302884216790E+01   1.027061243893438E+01   1.039980083979014E+01
   1.053061423068569E+01   1.066307305147949E+01   1.079719799913176E+01
   1.093301003093849E+01   1.107053036780591E+01   1.120978049756647E+01
   1.135078217833627E+01   1.149355744191476E+01   1.163812859722740E+01
   1.178451823381128E+01   1.193274922534499E+01   1.208284473322255E+01
   1.223482821017239E+01   1.238872340392204E+01   1.254455436090859E+01
   1.270234543003612E+01   1.286212126648025E+01   1.302390683554042E+01
   1.318772741654102E+01   1.335360860678107E+01   1.352157632553405E+01
   1.369165681809778E+01   1.386387665989521E+01   1.403826276062705E+01
   1.421484236847628E+01   1.439364307436590E+01   1.457469281627002E+01
   1.475801988357909E+01   1.494365292152043E+01   1.513162093563382E+01
   1.532195329630393E+01   1.551467974334937E+01   1.570983039066954E+01
   1.590743573095018E+01   1.610752664042768E+01   1.631013438371376E+01
   1.651529061868056E+01   1.672302740140711E+01   1.693337719118843E+01
   1.714637285560707E+01   1.736204767566896E+01   1.758043535100356E+01
   1.780157000512940E+01   1.802548619078615E+01   1.825221889533332E+01
   1.848180354621731E+01   1.871427601650694E+01   1.894967263049862E+01
   1.918803016939225E+01   1.942938587703817E+01   1.967377746575677E+01
   1.992124312223103E+01   2.017182151347320E+01   2.042555179286677E+01
   2.068247360628405E+01   2.094262709828112E+01   2.120605291837045E+01
   2.147279222737229E+01   2.174288670384643E+01   2.201637855060424E+01
   2.229331050130327E+01   2.257372582712425E+01   2.285766834353228E+01
   2.314518241712332E+01   2.343631297255623E+01   2.373110549957265E+01
   2.402960606010474E+01   2.433186129547228E+01   2.463791843367084E+01
   2.494782529675086E+01   2.526163030829023E+01   2.557938250096051E+01
   2.590113152418817E+01   2.622692765191280E+01   2.655682179044209E+01
   2.689086548640641E+01   2.722911093481292E+01   2.757161098720100E+01
   2.791841915990076E+01   2.826958964239467E+01   2.862517730578513E+01
   2.898523771136805E+01   2.934982711931424E+01   2.971900249746056E+01
   3.009282153021084E+01   3.047134262754953E+01   3.085462493416826E+01
   3.124272833870712E+01   3.163571348311279E+01   3.203364177211350E+01
   3.243657538281405E+01   3.284457727441094E+01   3.325771119802972E+01
   3.367604170668658E+01   3.409963416537450E+01   3.452855476127699E+01
   3.496287051410989E+01   3.540264928659307E+01   3.584795979505459E+01
   3.629887162016728E+01   3.675545521782123E+01   3.721778193013260E+01
   3.768592399659064E+01   3.815995456534582E+01   3.863994770463881E+01
   3.912597841437422E+01   3.961812263783938E+01   4.011645727357033E+01
   4.062106018736790E+01   4.113201022446387E+01   4.164938722184114E+01
   4.217327202070823E+01   4.270374647913066E+01   4.324089348482200E+01
   4.378479696809453E+01   4.433554191497419E+01   4.489321438047951E+01
   4.545790150206764E+01   4.602969151325038E+01   4.660867375738012E+01
   4.719493870161052E+01   4.778857795103200E+01   4.838968426298485E+01
   4.899835156155346E+01   4.961467495224139E+01   5.023875073683244E+01
   5.087067642843775E+01   5.151055076673212E+01   5.215847373338289E+01
   5.281454656767167E+01   5.347887178231366E+01   5.415155317947535E+01
   5.483269586699343E+01   5.552240627479881E+01   5.622079217154574E+01
   5.692796268145156E+01   5.764402830134730E+01   5.836910091794272E+01
   5.910329382530952E+01   5.984672174258301E+01   6.059950083188787E+01
   6.136174871648847E+01   6.213358449916736E+01   6.291512878083613E+01
   6.370650367937860E+01   6.450783284873285E+01   6.531924149821207E+01
   6.614085641206827E+01   6.697280596930359E+01   6.781522016372874E+01
   6.866823062427561E+01   6.953197063556424E+01   7.040657515872844E+01
   7.129218085250461E+01   7.218892609458393E+01   7.309695100323505E+01
   7.401639745919745E+01   7.494740912785024E+01   7.589013148166109E+01