<UPF version="2.0.1">
  <PP_INFO>
    Generated using "atomic" code by A. Dal Corso  v.7.2
    Author: ADC
    Generation date: 22Sep2023
    Pseudopotential type: PAW
    Element: Cs
    Functional:  SLA  PW   PSX  PSC
    Suggested minimum cutoff for wavefunctions:  34. Ry
    Suggested minimum cutoff for charge density: 258. Ry
    The Pseudo was generated with a Scalar-Relativistic Calculation
    Local Potential by smoothing AE potential with Bessel fncs, cutoff radius:   2.0000
    Valence configuration: 
    nl pn  l   occ       Rcut    Rcut US       E pseu
    5S  1  0  2.00      1.600      2.100    -1.968897
    6S  2  0  1.00      1.600      2.100    -0.153128
    5P  2  1  6.00      1.600      2.300    -0.995557
    Generation configuration:
    5S  1  0  2.00      1.600      2.100    -1.968892
    6S  2  0  1.00      1.600      2.100    -0.153128
    6S  2  0  0.00      1.600      2.100     1.000000
    5P  2  1  6.00      1.600      2.300    -0.995555
    6P  3  1  0.00      1.600      2.300     6.000000
    5D  3  2  0.00      1.500      2.100     0.300000
    5D  3  2  0.00      1.500      2.100     4.050000
    4F  4  3  0.00      1.500      2.100     0.050000
    4F  4  3  0.00      1.500      2.100     4.050000
    Pseudization used: troullier-martins
    <PP_INPUTFILE>
@input
title='Cs',
zed=55.,
rel=1,
config='[Xe] 6s1 6p0 5d-1 4f-1',
iswitch=3,
dft='PBESOL'
/
@inputp
lpaw=.true.,
pseudotype=3,
file_pseudopw='Cs.pbesol-spn-kjpaw_psl.1.0.0.UPF',
author='ADC',
lloc=-1,
rcloc=2.0,
which_augfun='PSQ',
rmatch_augfun_nc=.true.,
nlcc=.true.,
new_core_ps=.true.,
rcore=1.6,
tm=.true.
/
9
5S  1  0  2.00  0.00  1.60  2.10  0.0
6S  2  0  1.00  0.00  1.60  2.10  0.0
6S  2  0  0.00  1.00  1.60  2.10  0.0
5P  2  1  6.00  0.00  1.60  2.30  0.0
6P  3  1  0.00  6.00  1.60  2.30  0.0
5D  3  2  0.00  0.30  1.50  2.10  0.0
5D  3  2  0.00  4.05  1.50  2.10  0.0
4F  4  3  0.00  0.05  1.50  2.10  0.0
4F  4  3  0.00  4.05  1.50  2.10  0.0
    </PP_INPUTFILE>
  </PP_INFO>
    <!-- END OF HUMAN READABLE SECTION -->
  <PP_HEADER generated="Generated using 'atomic' code by A. Dal Corso  v.7.2" author="ADC" date="22Sep2023" comment="" element="Cs" pseudo_type="PAW" relativistic="scalar" is_ultrasoft="true" is_paw="true" is_coulomb="false" has_so="false" has_wfc="true" has_gipaw="false" paw_as_gipaw="false" core_correction="true" functional=" SLA  PW   PSX  PSC" z_valence="9.0000000000000000" total_psenergy="-409.38607320973631" wfc_cutoff="34.056063910764180" rho_cutoff="258.00046339363718" l_max="3" l_max_rho="6" l_local="-1" mesh_size="1251" number_of_wfc="3" number_of_proj="9"/>
  <PP_MESH mesh="1251" dx="1.2500000000000001E-002" xmin="-7.0000000000000000" rmax="100.00000000000000" zmesh="55.000000000000000">
    <PP_R>
   1.657967210099120E-05   1.678821870307313E-05   1.699938849848331E-05
   1.721321448293189E-05   1.742973006716400E-05   1.764896908218016E-05
   1.787096578452252E-05   1.809575486162748E-05   1.832337143724564E-05
   1.855385107693008E-05   1.878722979359340E-05   1.902354405313488E-05
   1.926283078013837E-05   1.950512736364176E-05   1.975047166297923E-05
   1.999890201369669E-05   2.025045723354188E-05   2.050517662852968E-05
   2.076309999908377E-05   2.102426764625560E-05   2.128872037802135E-05
   2.155649951565842E-05   2.182764690020183E-05   2.210220489898209E-05
   2.238021641224511E-05   2.266172487985545E-05   2.294677428808390E-05
   2.323540917648045E-05   2.352767464483360E-05   2.382361636021745E-05
   2.412328056412712E-05   2.442671407970412E-05   2.473396431905262E-05
   2.504507929064758E-05   2.536010760683634E-05   2.567909849143421E-05
   2.600210178741590E-05   2.632916796470356E-05   2.666034812805278E-05
   2.699569402503794E-05   2.733525805413768E-05   2.767909327292239E-05
   2.802725340634455E-05   2.837979285513331E-05   2.873676670429485E-05
   2.909823073171935E-05   2.946424141689648E-05   2.983485594974047E-05
   3.021013223952607E-05   3.059012892393712E-05   3.097490537822862E-05
   3.136452172450441E-05   3.175903884111127E-05   3.215851837215129E-05
   3.256302273711400E-05   3.297261514062937E-05   3.338735958234376E-05
   3.380732086692002E-05   3.423256461416322E-05   3.466315726927412E-05
   3.509916611323108E-05   3.554065927330304E-05   3.598770573369449E-05
   3.644037534632434E-05   3.689873884174062E-05   3.736286784017198E-05
   3.783283486271872E-05   3.830871334268426E-05   3.879057763704924E-05
   3.927850303809008E-05   3.977256578514336E-05   4.027284307651849E-05
   4.077941308156006E-05   4.129235495286194E-05   4.181174883863520E-05
   4.233767589523116E-05   4.287021829982241E-05   4.340945926324316E-05
   4.395548304299097E-05   4.450837495639242E-05   4.506822139393379E-05
   4.563510983275997E-05   4.620912885034288E-05   4.679036813832182E-05
   4.737891851651815E-05   4.797487194712585E-05   4.857832154908092E-05
   4.918936161261140E-05   4.980808761397033E-05   5.043459623035434E-05
   5.106898535500932E-05   5.171135411252668E-05   5.236180287433169E-05
   5.302043327436669E-05   5.368734822497176E-05   5.436265193296473E-05
   5.504644991592392E-05   5.573884901867533E-05   5.643995742998743E-05
   5.714988469947601E-05   5.786874175472122E-05   5.859664091860048E-05
   5.933369592683906E-05   6.008002194578149E-05   6.083573559038676E-05
   6.160095494244930E-05   6.237579956904972E-05   6.316039054123734E-05
   6.395485045294779E-05   6.475930344015872E-05   6.557387520028601E-05
   6.639869301182442E-05   6.723388575423513E-05   6.807958392808328E-05
   6.893591967542924E-05   6.980302680047571E-05   7.068104079047509E-05
   7.157009883689969E-05   7.247033985687801E-05   7.338190451490106E-05
   7.430493524480121E-05   7.523957627200794E-05   7.618597363608326E-05
   7.714427521354074E-05   7.811463074095163E-05   7.909719183834125E-05
   8.009211203288012E-05   8.109954678287275E-05   8.211965350204847E-05
   8.315259158415770E-05   8.419852242787720E-05   8.525760946202929E-05
   8.633001817111778E-05   8.741591612118519E-05   8.851547298599570E-05
   8.962886057354640E-05   9.075625285291304E-05   9.189782598143298E-05
   9.305375833223002E-05   9.422423052208590E-05   9.540942543966153E-05
   9.660952827407410E-05   9.782472654383310E-05   9.905521012614045E-05
   1.003011712865595E-04   1.015628047090564E-04   1.028403075264201E-04
   1.041338793510652E-04   1.054437223062207E-04   1.067700410575137E-04
   1.081130428449472E-04   1.094729375152829E-04   1.108499375548298E-04
   1.122442581226455E-04   1.136561170841557E-04   1.150857350451954E-04
   1.165333353864797E-04   1.179991442985070E-04   1.194833908169021E-04
   1.209863068582032E-04   1.225081272560994E-04   1.240490897981241E-04
   1.256094352628097E-04   1.271894074573093E-04   1.287892532554932E-04
   1.304092226365218E-04   1.320495687239071E-04   1.337105478250625E-04
   1.353924194713516E-04   1.370954464586414E-04   1.388198948883629E-04
   1.405660342090922E-04   1.423341372586504E-04   1.441244803067363E-04
   1.459373430980938E-04   1.477730088962220E-04   1.496317645276369E-04
   1.515139004266874E-04   1.534197106809369E-04   1.553494930771154E-04
   1.573035491476479E-04   1.592821842177714E-04   1.612857074532411E-04
   1.633144319086385E-04   1.653686745762877E-04   1.674487564357844E-04
   1.695550025041514E-04   1.716877418866220E-04   1.738473078280637E-04
   1.760340377650489E-04   1.782482733785787E-04   1.804903606474729E-04
   1.827606499024288E-04   1.850594958807612E-04   1.873872577818318E-04
   1.897442993231728E-04   1.921309887973210E-04   1.945476991293623E-04
   1.969948079352028E-04   1.994726975805725E-04   2.019817552407692E-04
   2.045223729611575E-04   2.070949477184250E-04   2.096998814826113E-04
   2.123375812799173E-04   2.150084592563021E-04   2.177129327418840E-04
   2.204514243161472E-04   2.232243618739716E-04   2.260321786924926E-04
   2.288753134988000E-04   2.317542105384922E-04   2.346693196450886E-04
   2.376210963103178E-04   2.406100017552898E-04   2.436365030025605E-04
   2.467010729491079E-04   2.498041904402208E-04   2.529463403443204E-04
   2.561280136287224E-04   2.593497074363501E-04   2.626119251634160E-04
   2.659151765380768E-04   2.692599777000800E-04   2.726468512814130E-04
   2.760763264879626E-04   2.795489391822079E-04   2.830652319669471E-04
   2.866257542700815E-04   2.902310624304659E-04   2.938817197848341E-04
   2.975782967558260E-04   3.013213709411137E-04   3.051115272036538E-04
   3.089493577630743E-04   3.128354622882070E-04   3.167704479907912E-04
   3.207549297203484E-04   3.247895300602552E-04   3.288748794250238E-04
   3.330116161588033E-04   3.372003866351252E-04   3.414418453578984E-04
   3.457366550636774E-04   3.500854868252169E-04   3.544890201563272E-04
   3.589479431180506E-04   3.634629524261715E-04   3.680347535600798E-04
   3.726640608730047E-04   3.773515977036317E-04   3.820980964891278E-04
   3.869042988795850E-04   3.917709558539049E-04   3.966988278371413E-04
   4.016886848193171E-04   4.067413064757382E-04   4.118574822888177E-04
   4.170380116714351E-04   4.222837040918468E-04   4.275953792001656E-04
   4.329738669564342E-04   4.384200077603068E-04   4.439346525823643E-04
   4.495186630970800E-04   4.551729118174573E-04   4.608982822313626E-04
   4.666956689395715E-04   4.725659777955518E-04   4.785101260470057E-04
   4.845290424791907E-04   4.906236675600451E-04   4.967949535871376E-04
   5.030438648364650E-04   5.093713777131240E-04   5.157784809038746E-04
   5.222661755316261E-04   5.288354753118632E-04   5.354874067110417E-04
   5.422230091069766E-04   5.490433349512455E-04   5.559494499336381E-04
   5.629424331486708E-04   5.700233772641980E-04   5.771933886921446E-04
   5.844535877613830E-04   5.918051088927897E-04   5.992491007764975E-04
   6.067867265513833E-04   6.144191639868101E-04   6.221476056666552E-04
   6.299732591756550E-04   6.378973472880916E-04   6.459211081588539E-04
   6.540457955169030E-04   6.622726788611679E-04   6.706030436589094E-04
   6.790381915465749E-04   6.875794405331833E-04   6.962281252062666E-04
   7.049855969404002E-04   7.138532241083603E-04   7.228323922949330E-04
   7.319245045134154E-04   7.411309814248405E-04   7.504532615599554E-04
   7.598928015439985E-04   7.694510763242967E-04   7.791295794007307E-04
   7.889298230590977E-04   7.988533386074076E-04   8.089016766151550E-04
   8.190764071555967E-04   8.293791200510801E-04   8.398114251214568E-04
   8.503749524356178E-04   8.610713525661987E-04   8.719022968474813E-04
   8.828694776365450E-04   8.939746085777015E-04   9.052194248702535E-04
   9.166056835396250E-04   9.281351637118985E-04   9.398096668918075E-04
   9.516310172442251E-04   9.636010618791963E-04   9.757216711405479E-04
   9.879947388981363E-04   1.000422182843768E-03   1.013005944790844E-03
   1.025747990977770E-03   1.038650312375187E-03   1.051714924997063E-03
   1.064943870215701E-03   1.078339215080704E-03   1.091903052641963E-03
   1.105637502276690E-03   1.119544710020586E-03   1.133626848903154E-03
   1.147886119287243E-03   1.162324749212865E-03   1.176944994745319E-03
   1.191749140327716E-03   1.206739499137921E-03   1.221918413449996E-03
   1.237288255000185E-03   1.252851425357502E-03   1.268610356298976E-03
   1.284567510189630E-03   1.300725380367222E-03   1.317086491531845E-03
   1.333653400140402E-03   1.350428694806071E-03   1.367414996702771E-03
   1.384614959974733E-03   1.402031272151213E-03   1.419666654566421E-03
   1.437523862784740E-03   1.455605687031283E-03   1.473914952627877E-03
   1.492454520434524E-03   1.511227287296410E-03   1.530236186496553E-03
   1.549484188214125E-03   1.568974299988555E-03   1.588709567189462E-03
   1.608693073492497E-03   1.628927941361177E-03   1.649417332534774E-03
   1.670164448522343E-03   1.691172531102972E-03   1.712444862832303E-03
   1.733984767555448E-03   1.755795610926343E-03   1.777880800933637E-03
   1.800243788433205E-03   1.822888067687341E-03   1.845817176910747E-03
   1.869034698823390E-03   1.892544261210303E-03   1.916349537488442E-03
   1.940454247280658E-03   1.964862156996897E-03   1.989577080422709E-03
   2.014602879315163E-03   2.039943464006250E-03   2.065602794013886E-03
   2.091584878660590E-03   2.117893777699946E-03   2.144533601950956E-03
   2.171508513940357E-03   2.198822728553031E-03   2.226480513690581E-03
   2.254486190938205E-03   2.282844136239951E-03   2.311558780582465E-03
   2.340634610687350E-03   2.370076169712213E-03   2.399888057960551E-03
   2.430074933600555E-03   2.460641513392958E-03   2.491592573428045E-03
   2.522932949871914E-03   2.554667539722149E-03   2.586801301572976E-03
   2.619339256390059E-03   2.652286488295044E-03   2.685648145359943E-03
   2.719429440411548E-03   2.753635651845940E-03   2.788272124453245E-03
   2.823344270252782E-03   2.858857569338685E-03   2.894817570736188E-03
   2.931229893268670E-03   2.968100226435607E-03   3.005434331301574E-03
   3.043238041396410E-03   3.081517263626731E-03   3.120277979198888E-03
   3.159526244553548E-03   3.199268192312027E-03   3.239510032234518E-03
   3.280258052190379E-03   3.321518619140632E-03   3.363298180132805E-03
   3.405603263308310E-03   3.448440478922460E-03   3.491816520377349E-03
   3.535738165267703E-03   3.580212276439892E-03   3.625245803064276E-03
   3.670845781721009E-03   3.717019337499529E-03   3.763773685111869E-03
   3.811116130019960E-03   3.859054069577147E-03   3.907594994184012E-03
   3.956746488458782E-03   4.006516232422436E-03   4.056912002698724E-03
   4.107941673729289E-03   4.159613219004045E-03   4.211934712307071E-03
   4.264914328978142E-03   4.318560347190148E-03   4.372881149242585E-03
   4.427885222871287E-03   4.483581162574665E-03   4.539977670956613E-03
   4.597083560086299E-03   4.654907752875093E-03   4.713459284470757E-03
   4.772747303669225E-03   4.832781074344123E-03   4.893569976894252E-03
   4.955123509709321E-03   5.017451290654058E-03   5.080563058571044E-03
   5.144468674802419E-03   5.209178124730729E-03   5.274701519339189E-03
   5.341049096791508E-03   5.408231224031649E-03   5.476258398403678E-03
   5.545141249291987E-03   5.614890539782180E-03   5.685517168342798E-03
   5.757032170528243E-03   5.829446720703107E-03   5.902772133788177E-03
   5.977019867028440E-03   6.052201521783267E-03   6.128328845339173E-03
   6.205413732745344E-03   6.283468228672264E-03   6.362504529293735E-03
   6.442534984192524E-03   6.523572098290032E-03   6.605628533800209E-03
   6.688717112208043E-03   6.772850816272965E-03   6.858042792057401E-03
   6.944306350980893E-03   7.031654971900028E-03   7.120102303214527E-03
   7.209662164999872E-03   7.300348551166669E-03   7.392175631647260E-03
   7.485157754609796E-03   7.579309448700153E-03   7.674645425312101E-03
   7.771180580885942E-03   7.868929999236137E-03   7.967908953908174E-03
   8.068132910565089E-03   8.169617529404030E-03   8.272378667603159E-03
   8.376432381799383E-03   8.481794930597249E-03   8.588482777109357E-03
   8.696512591528802E-03   8.805901253733867E-03   8.916665855925571E-03
   9.028823705298361E-03   9.142392326744381E-03   9.257389465591806E-03
   9.373833090377533E-03   9.491741395654844E-03   9.611132804836322E-03
   9.732025973072550E-03   9.854439790167041E-03   9.978393383527757E-03
   1.010390612115585E-02   1.023099761467193E-02   1.035968772238042E-02
   1.048999655237249E-02   1.062194446566793E-02   1.075555207939664E-02
   1.089084027002010E-02   1.102783017659333E-02   1.116654320406796E-02
   1.130700102663673E-02   1.144922559112019E-02   1.159323912039589E-02
   1.173906411687077E-02   1.188672336599723E-02   1.203623993983335E-02
   1.218763720064799E-02   1.234093880457118E-02   1.249616870529040E-02
   1.265335115779349E-02   1.281251072215843E-02   1.297367226739096E-02
   1.313686097531041E-02   1.330210234448440E-02   1.346942219421305E-02
   1.363884666856331E-02   1.381040224045398E-02   1.398411571579220E-02
   1.416001423766191E-02   1.433812529056503E-02   1.451847670471595E-02
   1.470109666039005E-02   1.488601369232695E-02   1.507325669418910E-02
   1.526285492307650E-02   1.545483800409815E-02   1.564923593500106E-02
   1.584607909085743E-02   1.604539822881083E-02   1.624722449288210E-02
   1.645158941883563E-02   1.665852493910688E-02   1.686806338779188E-02
   1.708023750569956E-02   1.729508044546753E-02   1.751262577674222E-02
   1.773290749142424E-02   1.795596000897967E-02   1.818181818181818E-02
   1.841051730073881E-02   1.864209310044417E-02   1.887658176512410E-02
   1.911401993410954E-02   1.935444470759744E-02   1.959789365244785E-02
   1.984440480805367E-02   2.009401669228451E-02   2.034676830750512E-02
   2.060269914666957E-02   2.086184919949223E-02   2.112425895869606E-02
   2.138996942633984E-02   2.165902212022471E-02   2.193145908038147E-02
   2.220732287563945E-02   2.248665661027791E-02   2.276950393076118E-02
   2.305590903255855E-02   2.334591666704984E-02   2.363957214851803E-02
   2.393692136122949E-02   2.423801076660370E-02   2.454288741047280E-02
   2.485159893043266E-02   2.516419356328639E-02   2.548072015258134E-02
   2.580122815624105E-02   2.612576765429319E-02   2.645438935669457E-02
   2.678714461125483E-02   2.712408541165947E-02   2.746526440559406E-02
   2.781073490297054E-02   2.816055088425697E-02   2.851476700891217E-02
   2.887343862392625E-02   2.923662177246879E-02   2.960437320264566E-02
   2.997675037636597E-02   3.035381147832078E-02   3.073561542507440E-02
   3.112222187427028E-02   3.151369123395266E-02   3.191008467200543E-02
   3.231146412570979E-02   3.271789231142198E-02   3.312943273437291E-02
   3.354614969859093E-02   3.396810831694950E-02   3.439537452134128E-02
   3.482801507297994E-02   3.526609757283191E-02   3.570969047217906E-02
   3.615886308331440E-02   3.661368559037231E-02   3.707422906029483E-02
   3.754056545393614E-02   3.801276763730649E-02   3.849090939295773E-02
   3.897506543151199E-02   3.946531140333533E-02   3.996172391035824E-02
   4.046438051804489E-02   4.097335976751288E-02   4.148874118780553E-02
   4.201060530831827E-02   4.253903367138168E-02   4.307410884500257E-02
   4.361591443576542E-02   4.416453510189616E-02   4.472005656649002E-02
   4.528256563090604E-02   4.585215018832999E-02   4.642889923750776E-02
   4.701290289665176E-02   4.760425241752185E-02   4.820304019968378E-02
   4.880935980494677E-02   4.942330597198264E-02   5.004497463112922E-02
   5.067446291937912E-02   5.131186919555817E-02   5.195729305569392E-02
   5.261083534857747E-02   5.327259819152191E-02   5.394268498631761E-02
   5.462120043538967E-02   5.530825055815756E-02   5.600394270760056E-02
   5.670838558703264E-02   5.742168926708670E-02   5.814396520291408E-02
   5.887532625159933E-02   5.961588668979406E-02   6.036576223157366E-02
   6.112507004651692E-02   6.189392877801487E-02   6.267245856180867E-02
   6.346078104476076E-02   6.425901940386315E-02   6.506729836548328E-02
   6.588574422485347E-02   6.671448486580449E-02   6.755364978074735E-02
   6.840337009090754E-02   6.926377856681204E-02   7.013500964903588E-02
   7.101719946920827E-02   7.191048587128322E-02   7.281500843307871E-02
   7.373090848808503E-02   7.465832914754929E-02   7.559741532283656E-02
   7.654831374807200E-02   7.751117300306949E-02   7.848614353654626E-02
   7.947337768963193E-02   8.047302971967160E-02   8.148525582432845E-02
   8.251021416599104E-02   8.354806489648527E-02   8.459897018209943E-02
   8.566309422892263E-02   8.674060330850186E-02   8.783166578382334E-02
   8.893645213561829E-02   9.005513498900206E-02   9.118788914044659E-02
   9.233489158509239E-02   9.349632154440531E-02   9.467236049417910E-02
   9.586319219289254E-02   9.706900271042145E-02   9.828998045711212E-02
   9.952631621322192E-02   1.007782031587277E-01   1.020458369035119E-01
   1.033294155179263E-01   1.046291395637406E-01   1.059452121254814E-01
   1.072778388421640E-01   1.086272279394240E-01   1.099935902620536E-01
   1.113771393069452E-01   1.127780912564522E-01   1.141966650121667E-01
   1.156330822291242E-01   1.170875673504375E-01   1.185603476423657E-01
   1.200516532298261E-01   1.215617171323504E-01   1.230907753004959E-01
   1.246390666527124E-01   1.262068331126734E-01   1.277943196470782E-01
   1.294017743039272E-01   1.310294482512812E-01   1.326775958165061E-01
   1.343464745260118E-01   1.360363451454925E-01   1.377474717206700E-01
   1.394801216185532E-01   1.412345655692142E-01   1.430110777080889E-01
   1.448099356188142E-01   1.466314203765977E-01   1.484758165921390E-01
   1.503434124560995E-01   1.522344997841321E-01   1.541493740624797E-01
   1.560883344941436E-01   1.580516840456364E-01   1.600397294943202E-01
   1.620527814763407E-01   1.640911545351660E-01   1.661551671707332E-01
   1.682451418892162E-01   1.703614052534170E-01   1.725042879337914E-01
   1.746741247601184E-01   1.768712547738161E-01   1.790960212809196E-01
   1.813487719057223E-01   1.836298586450919E-01   1.859396379234729E-01
   1.882784706485763E-01   1.906467222677740E-01   1.930447628252002E-01
   1.954729670195701E-01   1.979317142627300E-01   2.004213887389383E-01
   2.029423794648975E-01   2.054950803505380E-01   2.080798902605658E-01
   2.106972130767891E-01   2.133474577612221E-01   2.160310384199890E-01
   2.187483743680280E-01   2.214998901946086E-01   2.242860158296776E-01
   2.271071866110330E-01   2.299638433523495E-01   2.328564324120553E-01
   2.357854057630752E-01   2.387512210634551E-01   2.417543417278689E-01
   2.447952370000311E-01   2.478743820260139E-01   2.509922579284926E-01
   2.541493518819208E-01   2.573461571886511E-01   2.605831733560173E-01
   2.638609061743805E-01   2.671798677961626E-01   2.705405768158700E-01
   2.739435583511235E-01   2.773893441247123E-01   2.808784725476732E-01
   2.844114888034213E-01   2.879889449329351E-01   2.916113999210123E-01
   2.952794197836156E-01   2.989935776563102E-01   3.027544538838208E-01
   3.065626361107100E-01   3.104187193731975E-01   3.143233061921393E-01
   3.182770066671689E-01   3.222804385720299E-01   3.263342274511029E-01
   3.304390067171467E-01   3.345954177502740E-01   3.388041099981640E-01
   3.430657410775433E-01   3.473809768769394E-01   3.517504916607240E-01
   3.561749681744731E-01   3.606550977516424E-01   3.651915804215939E-01
   3.697851250189750E-01   3.744364492944734E-01   3.791462800269715E-01
   3.839153531371023E-01   3.887444138022426E-01   3.936342165729468E-01
   3.985855254908449E-01   4.035991142080302E-01   4.086757661079387E-01
   4.138162744277587E-01   4.190214423823745E-01   4.242920832898677E-01
   4.296290206986045E-01   4.350330885159118E-01   4.405051311383814E-01
   4.460460035838068E-01   4.516565716247791E-01   4.573377119239709E-01
   4.630903121711109E-01   4.689152712216920E-01   4.748134992374181E-01
   4.807859178284146E-01   4.868334601972392E-01   4.929570712846892E-01
   4.991577079174563E-01   5.054363389576307E-01   5.117939454540846E-01
   5.182315207957694E-01   5.247500708669279E-01   5.313506142042717E-01
   5.380341821561270E-01   5.448018190435823E-01   5.516545823236720E-01
   5.585935427545988E-01   5.656197845630484E-01   5.727344056135993E-01
   5.799385175802636E-01   5.872332461201950E-01   5.946197310495668E-01
   6.020991265216784E-01   6.096726012072903E-01   6.173413384772283E-01
   6.251065365872951E-01   6.329694088654918E-01   6.409311839016099E-01
   6.489931057391983E-01   6.571564340699443E-01   6.654224444305098E-01
   6.737924284018290E-01   6.822676938109273E-01   6.908495649352692E-01
   6.995393827096752E-01   7.083385049358549E-01   7.172483064945555E-01
   7.262701795603987E-01   7.354055338194079E-01   7.446557966892692E-01
   7.540224135423784E-01   7.635068479316729E-01   7.731105818193234E-01
   7.828351158082902E-01   7.926819693767910E-01   8.026526811157325E-01
   8.127488089691065E-01   8.229719304774321E-01   8.333236430242458E-01
   8.438055640856905E-01   8.544193314832609E-01   8.651666036397037E-01
   8.760490598381603E-01   8.870684004845538E-01   8.982263473732761E-01
   9.095246439562330E-01   9.209650556152484E-01   9.325493699379219E-01
   9.442793969969362E-01   9.561569696328810E-01   9.681839437406490E-01
   9.803621985594103E-01   9.926936369662588E-01   1.005180185773536E+00
   1.017823796029894E+00   1.030626443325161E+00   1.043590128099023E+00
   1.056716875953600E+00   1.070008737969954E+00   1.083467791028563E+00
   1.097096138133856E+00   1.110895908742789E+00   1.124869259097598E+00
   1.139018372562708E+00   1.153345459965879E+00   1.167852759943672E+00
   1.182542539291218E+00   1.197417093316431E+00   1.212478746198640E+00
   1.227729851351748E+00   1.243172791791968E+00   1.258809980510157E+00
   1.274643860848870E+00   1.290676906884126E+00   1.306911623811983E+00
   1.323350548339995E+00   1.339996249083561E+00   1.356851326967289E+00
   1.373918415631394E+00   1.391200181843198E+00   1.408699325913836E+00
   1.426418582120166E+00   1.444360719132024E+00   1.462528540444824E+00
   1.480924884817603E+00   1.499552626716602E+00   1.518414676764387E+00
   1.537513982194655E+00   1.556853527312739E+00   1.576436333961907E+00
   1.596265461995544E+00   1.616344009755242E+00   1.636675114554942E+00
   1.657261953171135E+00   1.678107742339234E+00   1.699215739256213E+00
   1.720589242089530E+00   1.742231590492489E+00   1.764146166126063E+00
   1.786336393187274E+00   1.808805738944254E+00   1.831557714277984E+00
   1.854595874230903E+00   1.877923818562379E+00   1.901545192311168E+00
   1.925463686364982E+00   1.949683038037174E+00   1.974207031650720E+00
   1.999039499129520E+00   2.024184320597134E+00   2.049645424983079E+00
   2.075426790636710E+00   2.101532445948866E+00   2.127966469981307E+00
   2.154732993104061E+00   2.181836197640828E+00   2.209280318522454E+00
   2.237069643948665E+00   2.265208516058099E+00   2.293701331606767E+00
   2.322552542655073E+00   2.351766657263436E+00   2.381348240196702E+00
   2.411301913637394E+00   2.441632357907919E+00   2.472344312201911E+00
   2.503442575324704E+00   2.534932006443185E+00   2.566817525845036E+00
   2.599104115707528E+00   2.631796820876021E+00   2.664900749652203E+00
   2.698421074592302E+00   2.732363033315291E+00   2.766731929321266E+00
   2.801533132820162E+00   2.836772081570820E+00   2.872454281730681E+00
   2.908585308716122E+00   2.945170808073606E+00   2.982216496361854E+00
   3.019728162045020E+00   3.057711666397190E+00   3.096172944418202E+00
   3.135118005760988E+00   3.174552935670626E+00   3.214483895935135E+00
   3.254917125848303E+00   3.295858943184570E+00   3.337315745186181E+00
   3.379294009562806E+00   3.421800295503645E+00   3.464841244702364E+00
   3.508423582394847E+00   3.552554118410017E+00   3.597239748233922E+00
   3.642487454087124E+00   3.688304306015725E+00   3.734697462996061E+00
   3.781674174053284E+00   3.829241779394086E+00   3.877407711553565E+00
   3.926179496556620E+00   3.975564755093894E+00   4.025571203712494E+00
   4.076206656021768E+00   4.127479023914147E+00   4.179396318801434E+00
   4.231966652866587E+00   4.285198240331248E+00   4.339099398739270E+00
   4.393678550256305E+00   4.448944222985825E+00   4.504905052301642E+00
   4.561569782197174E+00   4.618947266651769E+00   4.677046471014091E+00
   4.735876473403033E+00   4.795446466126168E+00   4.855765757116039E+00
   4.916843771384600E+00   4.978690052495828E+00   5.041314264056981E+00
   5.104726191228537E+00   5.168935742253108E+00   5.233952950003697E+00
   5.299787973551276E+00   5.366451099752224E+00   5.433952744855647E+00
   5.502303456130906E+00   5.571513913515719E+00   5.641594931284843E+00
   5.712557459739894E+00   5.784412586920328E+00   5.857171540335937E+00
   5.930845688721242E+00   6.005446543811798E+00   6.080985762143000E+00
   6.157475146871410E+00   6.234926649618989E+00   6.313352372340638E+00
   6.392764569215069E+00   6.473175648559620E+00   6.554598174769049E+00
   6.637044870278707E+00   6.720528617552532E+00   6.805062461095858E+00
   6.890659609493738E+00   6.977333437474768E+00   7.065097488000887E+00
   7.153965474383572E+00   7.243951282426472E+00   7.335068972595184E+00
   7.427332782214192E+00   7.520757127691432E+00   7.615356606770987E+00
   7.711146000813901E+00   7.808140277107889E+00   7.906354591205975E+00
   8.005804289294526E+00   8.106504910591228E+00   8.208472189773010E+00
   8.311722059434709E+00   8.416270652578538E+00   8.522134305134855E+00
   8.629329558514780E+00   8.737873162194715E+00   8.847782076333585E+00
   8.959073474422851E+00   9.071764745969855E+00   9.185873499215081E+00
   9.301417563883350E+00   9.418414993969854E+00   9.536884070561099E+00
   9.656843304691293E+00   9.778311440234862E+00   9.901307456835081E+00
   1.002585057286980E+01   1.015196024845429E+01   1.027965618848191E+01
   1.040895834570312E+01   1.053988692384303E+01   1.067246238075834E+01
   1.080670543163397E+01   1.094263705221968E+01   1.108027848210778E+01
   1.121965122805170E+01   1.136077706732656E+01   1.150367805113189E+01
   1.164837650803711E+01   1.179489504747053E+01   1.194325656325200E+01
   1.209348423717021E+01   1.224560154260490E+01   1.239963224819446E+01
   1.255560042155008E+01   1.271353043301611E+01   1.287344695947817E+01
   1.303537498821891E+01   1.319933982082221E+01   1.336536707712680E+01
   1.353348269922922E+01   1.370371295553748E+01   1.387608444487548E+01
   1.405062410063909E+01   1.422735919500466E+01   1.440631734319022E+01
   1.458752650777053E+01   1.477101500304626E+01   1.495681149946804E+01
   1.514494502811652E+01   1.533544498523825E+01   1.552834113683912E+01
   1.572366362333531E+01   1.592144296426265E+01   1.612171006304562E+01
   1.632449621182579E+01   1.652983309635150E+01   1.673775280092875E+01
   1.694828781343433E+01   1.716147103039236E+01   1.737733576211414E+01
   1.759591573790321E+01   1.781724511132553E+01   1.804135846554593E+01
   1.826829081873203E+01   1.849807762952566E+01   1.873075480258353E+01
   1.896635869418735E+01   1.920492611792446E+01   1.944649435044026E+01