<UPF version="2.0.1">
  <PP_INFO>
    Generated using "atomic" code by A. Dal Corso  v.7.2
    Author: ADC
    Generation date: 22Sep2023
    Pseudopotential type: PAW
    Element: Dy
    Functional:  SLA  PW   PSX  PSC
    Suggested minimum cutoff for wavefunctions: 125. Ry
    Suggested minimum cutoff for charge density: 500. Ry
    The Pseudo was generated with a Scalar-Relativistic Calculation
    Local Potential by smoothing AE potential with Bessel fncs, cutoff radius:   1.7000
    Valence configuration: 
    nl pn  l   occ       Rcut    Rcut US       E pseu
    5S  1  0  2.00      1.300      1.600    -3.598468
    6S  2  0  2.00      1.300      1.600    -0.276677
    5P  2  1  6.00      1.400      1.700    -1.865231
    4D  3  2 10.00      1.000      1.100   -11.237494
    5D  4  2  0.00      1.000      1.100    -0.087395
    4F  4  3 10.00      1.100      1.300    -0.231771
    Generation configuration:
    5S  1  0  2.00      1.300      1.600    -3.598363
    6S  2  0  2.00      1.300      1.600    -0.276643
    5P  2  1  6.00      1.400      1.700    -1.865133
    6P  3  1  0.00      1.400      1.700     0.300000
    4D  3  2 10.00      1.000      1.100   -11.237382
    5D  4  2  0.00      1.000      1.100    -0.087351
    4F  4  3 10.00      1.100      1.300    -0.231656
    4F  4  3  0.00      1.100      1.300     1.000000
    Pseudization used: troullier-martins
    <PP_INPUTFILE>
@input
title='Dy',
zed=66.0,
rel=1,
config='[Xe] 4f10.0 5d0.0 6s2. 6p0.',
iswitch=3,
dft='PBESOL'
/
@inputp
lpaw=.true.,
pseudotype=3,
file_pseudopw='Dy.pbesol-spdfn-kjpaw_psl.1.0.0.UPF',
author='ADC',
lloc=-1,
rcloc=1.7,
which_augfun='PSQ',
rmatch_augfun_nc=.true.,
nlcc=.true.,
new_core_ps=.true.,
rcore=1.2,
tm=.true.
/
8
5S  1  0  2.00  0.00  1.30  1.60  0.0
6S  2  0  2.00  0.00  1.30  1.60  0.0
5P  2  1  6.00  0.00  1.40  1.70  0.0
6P  3  1  0.00  0.30  1.40  1.70  0.0
4D  3  2 10.00  0.00  1.00  1.10  0.0
5D  4  2  0.00  0.00  1.00  1.10  0.0
4F  4  3 10.00  0.00  1.10  1.30  0.0
4F  4  3  0.00  1.00  1.10  1.30  0.0
    </PP_INPUTFILE>
  </PP_INFO>
    <!-- END OF HUMAN READABLE SECTION -->
  <PP_HEADER generated="Generated using 'atomic' code by A. Dal Corso  v.7.2" author="ADC" date="22Sep2023" comment="" element="Dy" pseudo_type="PAW" relativistic="scalar" is_ultrasoft="true" is_paw="true" is_coulomb="false" has_so="false" has_wfc="true" has_gipaw="false" paw_as_gipaw="false" core_correction="true" functional=" SLA  PW   PSX  PSC" z_valence="30.000000000000000" total_psenergy="-1361.0958122647282" wfc_cutoff="124.97014202671133" rho_cutoff="499.88056810684532" l_max="3" l_max_rho="6" l_local="-1" mesh_size="1265" number_of_wfc="6" number_of_proj="8"/>
  <PP_MESH mesh="1265" dx="1.2500000000000001E-002" xmin="-7.0000000000000000" rmax="100.00000000000000" zmesh="66.000000000000000">
    <PP_R>
   1.381639341749267E-05   1.399018225256094E-05   1.416615708206943E-05
   1.434434540244324E-05   1.452477505597000E-05   1.470747423515013E-05
   1.489247148710210E-05   1.507979571802290E-05   1.526947619770470E-05
   1.546154256410840E-05   1.565602482799450E-05   1.585295337761240E-05
   1.605235898344864E-05   1.625427280303480E-05   1.645872638581603E-05
   1.666575167808058E-05   1.687538102795156E-05   1.708764719044140E-05
   1.730258333256981E-05   1.752022303854633E-05   1.774060031501779E-05
   1.796374959638201E-05   1.818970575016819E-05   1.841850408248507E-05
   1.865018034353759E-05   1.888477073321287E-05   1.912231190673658E-05
   1.936284098040037E-05   1.960639553736133E-05   1.985301363351455E-05
   2.010273380343927E-05   2.035559506642010E-05   2.061163693254385E-05
   2.087089940887299E-05   2.113342300569695E-05   2.139924874286184E-05
   2.166841815617992E-05   2.194097330391963E-05   2.221695677337732E-05
   2.249641168753162E-05   2.277938171178140E-05   2.306591106076866E-05
   2.335604450528713E-05   2.364982737927776E-05   2.394730558691238E-05
   2.424852560976613E-05   2.455353451408040E-05   2.486237995811706E-05
   2.517511019960506E-05   2.549177410328093E-05   2.581242114852385E-05
   2.613710143708701E-05   2.646586570092606E-05   2.679876531012607E-05
   2.713585228092833E-05   2.747717928385781E-05   2.782279965195314E-05
   2.817276738910002E-05   2.852713717846936E-05   2.888596439106176E-05
   2.924930509435923E-05   2.961721606108586E-05   2.998975477807874E-05
   3.036697945527029E-05   3.074894903478385E-05   3.113572320014332E-05
   3.152736238559893E-05   3.192392778557021E-05   3.232548136420770E-05
   3.273208586507507E-05   3.314380482095281E-05   3.356070256376541E-05
   3.398284423463338E-05   3.441029579405162E-05   3.484312403219600E-05
   3.528139657935930E-05   3.572518191651868E-05   3.617454938603596E-05
   3.662956920249248E-05   3.709031246366035E-05   3.755685116161149E-05
   3.802925819396665E-05   3.850760737528573E-05   3.899197344860151E-05
   3.948243209709846E-05   3.997905995593821E-05   4.048193462423410E-05
   4.099113467717616E-05   4.150673967830861E-05   4.202883019196195E-05
   4.255748779584110E-05   4.309279509377223E-05   4.363483572860975E-05
   4.418369439530557E-05   4.473945685414313E-05   4.530220994413728E-05
   4.587204159660326E-05   4.644904084889611E-05   4.703329785832286E-05
   4.762490391623000E-05   4.822395146226768E-05   4.883053409883373E-05
   4.944474660569922E-05   5.006668495481791E-05   5.069644632532231E-05
   5.133412911870775E-05   5.197983297420810E-05   5.263365878436445E-05
   5.329570871078983E-05   5.396608620013227E-05   5.464489600023834E-05
   5.533224417652036E-05   5.602823812852927E-05   5.673298660673607E-05
   5.744659972952436E-05   5.816918900039642E-05   5.890086732539591E-05
   5.964174903074974E-05   6.039194988073167E-05   6.115158709575088E-05
   6.192077937066767E-05   6.269964689333995E-05   6.348831136340272E-05
   6.428689601128394E-05   6.509552561745970E-05   6.591432653195105E-05
   6.674342669406677E-05   6.758295565239396E-05   6.843304458504040E-05
   6.929382632013141E-05   7.016543535656433E-05   7.104800788502441E-05
   7.194168180926482E-05   7.284659676765432E-05   7.376289415499641E-05
   7.469071714462200E-05   7.563021071076086E-05   7.658152165119416E-05
   7.754479861019169E-05   7.852019210173826E-05   7.950785453305128E-05
   8.050794022839508E-05   8.152060545319425E-05   8.254600843845038E-05
   8.358430940546623E-05   8.463567059088030E-05   8.570025627201679E-05
   8.677823279255432E-05   8.786976858851729E-05   8.897503421459473E-05
   9.009420237078931E-05   9.122744792940240E-05   9.237494796235815E-05
   9.353688176887122E-05   9.471343090346304E-05   9.590477920432950E-05
   9.711111282206641E-05   9.833262024875586E-05   9.956949234741838E-05
   1.008219223818360E-04   1.020901060467495E-04   1.033742414984368E-04
   1.046745293856747E-04   1.059911728810911E-04   1.073243777129110E-04
   1.086743521971015E-04   1.100413072699226E-04   1.114254565208854E-04
   1.128270162261263E-04   1.142462053822012E-04   1.156832457403025E-04
   1.171383618409102E-04   1.186117810488753E-04   1.201037335889469E-04
   1.216144525817449E-04   1.231441740801850E-04   1.246931371063641E-04
   1.262615836889062E-04   1.278497589007808E-04   1.294579108975962E-04
   1.310862909563732E-04   1.327351535148095E-04   1.344047562110342E-04
   1.360953599238654E-04   1.378072288135731E-04   1.395406303631536E-04
   1.412958354201262E-04   1.430731182388517E-04   1.448727565233864E-04
   1.466950314708741E-04   1.485402278154822E-04   1.504086338728941E-04
   1.523005415853574E-04   1.542162465673010E-04   1.561560481515265E-04
   1.581202494359773E-04   1.601091573311008E-04   1.621230826078019E-04
   1.641623399460023E-04   1.662272479838104E-04   1.683181293673077E-04
   1.704353108009646E-04   1.725791230986875E-04   1.747499012355094E-04
   1.769479843999311E-04   1.791737160469185E-04   1.814274439515700E-04
   1.837095202634560E-04   1.860203015616430E-04   1.883601489104105E-04
   1.907294279156666E-04   1.931285087820768E-04   1.955577663709071E-04
   1.980175802585982E-04   2.005083347960749E-04   2.030304191688004E-04
   2.055842274575899E-04   2.081701587001840E-04   2.107886169536003E-04
   2.134400113572687E-04   2.161247561969584E-04   2.188432709695133E-04
   2.215959804483973E-04   2.243833147500667E-04   2.272057094011775E-04
   2.300636054066355E-04   2.329574493185066E-04   2.358876933057892E-04
   2.388547952250680E-04   2.418592186920549E-04   2.449014331540284E-04
   2.479819139631883E-04   2.511011424509281E-04   2.542596060030448E-04
   2.574577981358952E-04   2.606962185735058E-04   2.639753733256593E-04
   2.672957747669570E-04   2.706579417168793E-04   2.740623995208532E-04
   2.775096801323360E-04   2.810003221959376E-04   2.845348711315820E-04
   2.881138792197311E-04   2.917379056876808E-04   2.954075167969393E-04
   2.991232859317088E-04   3.028857936884762E-04   3.066956279667332E-04
   3.105533840608373E-04   3.144596647530264E-04   3.184150804076065E-04
   3.224202490663209E-04   3.264757965449208E-04   3.305823565309511E-04
   3.347405706827643E-04   3.389510887297819E-04   3.432145685740147E-04
   3.475316763928626E-04   3.519030867432057E-04   3.563294826668046E-04
   3.608115557970285E-04   3.653500064669223E-04   3.699455438186369E-04
   3.745988859142333E-04   3.793107598478810E-04   3.840819018594689E-04
   3.889130574496429E-04   3.938049814962931E-04   3.987584383725048E-04
   4.037742020659922E-04   4.088530563000376E-04   4.139957946559480E-04
   4.192032206970542E-04   4.244761480942700E-04   4.298154007532288E-04
   4.352218129430217E-04   4.406962294265526E-04   4.462395055925347E-04
   4.518525075891471E-04   4.575361124593712E-04   4.632912082780318E-04
   4.691186942905590E-04   4.750194810534983E-04   4.809944905767871E-04
   4.870446564678192E-04   4.931709240773247E-04   4.993742506470813E-04
   5.056556054594861E-04   5.120159699890085E-04   5.184563380555459E-04
   5.249777159797125E-04   5.315811227400764E-04   5.382675901323782E-04
   5.450381629307525E-04   5.518938990509732E-04   5.588358697157578E-04
   5.658651596221458E-04   5.729828671109861E-04   5.801901043385554E-04
   5.874879974503335E-04   5.948776867569669E-04   6.023603269124442E-04
   6.099370870945129E-04   6.176091511873671E-04   6.253777179666295E-04
   6.332440012866654E-04   6.412092302702472E-04   6.492746495006089E-04
   6.574415192159148E-04   6.657111155061730E-04   6.740847305126292E-04
   6.825636726296640E-04   6.911492667092334E-04   6.998428542678806E-04
   7.086457936963482E-04   7.175594604718322E-04   7.265852473729011E-04
   7.357245646971208E-04   7.449788404814180E-04   7.543495207252113E-04
   7.638380696163542E-04   7.734459697599154E-04   7.831747224098396E-04
   7.930258477035209E-04   8.030008848993304E-04   8.131013926171233E-04
   8.233289490817802E-04   8.336851523698069E-04   8.441716206590363E-04
   8.547899924814750E-04   8.655419269793226E-04   8.764291041642194E-04
   8.874532251797509E-04   8.986160125672533E-04   9.099192105349688E-04
   9.213645852305753E-04   9.329539250171551E-04   9.446890407526281E-04
   9.565717660727027E-04   9.686039576773874E-04   9.807874956210994E-04
   9.931242836064298E-04   1.005616249281601E-03   1.018265344541663E-03
   1.031073545833488E-03   1.044042854464585E-03   1.057175296915813E-03
   1.070472925158025E-03   1.083937816972685E-03   1.097572076276537E-03
   1.111377833450335E-03   1.125357245671726E-03   1.139512497252310E-03
   1.153845799978944E-03   1.168359393459344E-03   1.183055545472018E-03
   1.197936552320616E-03   1.213004739192736E-03   1.228262460523231E-03
   1.243712100362103E-03   1.259356072747009E-03   1.275196822080461E-03
   1.291236823511771E-03   1.307478583323795E-03   1.323924639324551E-03
   1.340577561243747E-03   1.357439951134314E-03   1.374514443778978E-03
   1.391803707101953E-03   1.409310442585810E-03   1.427037385693586E-03
   1.444987306296207E-03   1.463163009105286E-03   1.481567334111364E-03
   1.500203157027671E-03   1.519073389739451E-03   1.538180980758956E-03
   1.557528915686158E-03   1.577120217675252E-03   1.596957947907035E-03
   1.617045206067215E-03   1.637385130830747E-03   1.657980900352257E-03
   1.678835732762636E-03   1.699952886671875E-03   1.721335661678239E-03
   1.742987398883825E-03   1.764911481416621E-03   1.787111334959130E-03
   1.809590428283631E-03   1.832352273794192E-03   1.855400428075484E-03
   1.878738492448504E-03   1.902370113533293E-03   1.926298983818721E-03
   1.950528842239458E-03   1.975063474760177E-03   1.999906714967126E-03
   2.025062444667129E-03   2.050534594494132E-03   2.076327144523371E-03
   2.102444124893262E-03   2.128889616435124E-03   2.155667751310813E-03
   2.182782713658383E-03   2.210238740245870E-03   2.238040121133286E-03
   2.266191200342956E-03   2.294696376538283E-03   2.323560103711037E-03
   2.352786891877318E-03   2.382381307782237E-03   2.412347975613490E-03
   2.442691577723892E-03   2.473416855363006E-03   2.504528609417978E-03
   2.536031701163675E-03   2.567931053022276E-03   2.600231649332407E-03
   2.632938537127957E-03   2.666056826926689E-03   2.699591693528765E-03
   2.733548376825316E-03   2.767932182617193E-03   2.802748483444004E-03
   2.838002719423592E-03   2.873700399102050E-03   2.909847100314458E-03
   2.946448471056419E-03   2.983510230366576E-03   3.021038169220230E-03
   3.059038151434174E-03   3.097516114582941E-03   3.136478070926557E-03
   3.175930108349967E-03   3.215878391314289E-03   3.256329161820010E-03
   3.297288740382318E-03   3.338763527018697E-03   3.380760002248937E-03
   3.423284728107741E-03   3.466344349170038E-03   3.509945593589226E-03
   3.554095274148452E-03   3.598800289325123E-03   3.644067624368821E-03
   3.689904352392739E-03   3.736317635478888E-03   3.783314725797177E-03
   3.830902966738583E-03   3.879089794062577E-03   3.927882737058964E-03
   3.977289419724354E-03   4.027317561953436E-03   4.077974980745210E-03
   4.129269591424434E-03   4.181209408878382E-03   4.233802548809204E-03
   4.287057229002016E-03   4.340981770608941E-03   4.395584599449324E-03
   4.450874247326256E-03   4.506859353359708E-03   4.563548665336399E-03
   4.620951041076656E-03   4.679075449818483E-03   4.737930973618998E-03
   4.797526808773536E-03   4.857872267252589E-03   4.918976778156814E-03
   4.980849889190366E-03   5.043501268152722E-03   5.106940704449310E-03
   5.171178110621120E-03   5.236223523893553E-03   5.302087107744780E-03
   5.368779153493770E-03   5.436310081908360E-03   5.504690444833507E-03
   5.573930926840036E-03   5.644042346894137E-03   5.715035660047834E-03
   5.786921959150744E-03   5.859712476583357E-03   5.933418586012106E-03
   6.008051804166560E-03   6.083623792638891E-03   6.160146359706051E-03
   6.237631462174830E-03   6.316091207250127E-03   6.395537854426750E-03
   6.475983817404952E-03   6.557441666030114E-03   6.639924128256812E-03
   6.723444092137574E-03   6.808014607836692E-03   6.893648889669299E-03
   6.980360318166153E-03   7.068162442164374E-03   7.157068980924465E-03
   7.247093826274002E-03   7.338251044778222E-03   7.430554879937976E-03
   7.524019754415301E-03   7.618660272286984E-03   7.714491221326504E-03
   7.811527575314611E-03   7.909784496379036E-03   8.009277337363601E-03
   8.110021644227125E-03   8.212033158472534E-03   8.315327819606463E-03
   8.419921767629873E-03   8.525831345559941E-03   8.633073101983682E-03
   8.741663793643739E-03   8.851620388056607E-03   8.962960066163870E-03
   9.075700225016754E-03   9.189858480494445E-03   9.305452670056636E-03
   9.422500855530612E-03   9.541021325933490E-03   9.661032600329906E-03
   9.782553430725637E-03   9.905602804997688E-03   1.003019994986112E-02
   1.015636433387333E-02   1.028411567047598E-02   1.041347392107534E-02
   1.054445929816124E-02   1.067709226846536E-02   1.081139355615914E-02
   1.094738414609201E-02   1.108508528707033E-02   1.122451849517755E-02
   1.136570555713609E-02   1.150866853371165E-02   1.165342976316017E-02
   1.180001186471826E-02   1.194843774213753E-02   1.209873058726329E-02
   1.225091388365838E-02   1.240501141027246E-02   1.256104724515758E-02
   1.271904576923042E-02   1.287903167008179E-02   1.304102994583422E-02
   1.320506590904786E-02   1.337116519067569E-02   1.353935374406842E-02
   1.370965784902969E-02   1.388210411592240E-02   1.405671948982657E-02
   1.423353125474963E-02   1.441256703788961E-02   1.459385481395185E-02
   1.477742290952020E-02   1.496330000748306E-02   1.515151515151515E-02
   1.534209775061568E-02   1.553507758370347E-02   1.573048480427008E-02
   1.592834994509128E-02   1.612870392299787E-02   1.633157804370654E-02
   1.653700400671139E-02   1.674501391023709E-02   1.695564025625426E-02
   1.716891595555797E-02   1.738487433291019E-02   1.760354913224672E-02
   1.782497452194987E-02   1.804918510018726E-02   1.827621590031789E-02
   1.850610239636621E-02   1.873888050856493E-02   1.897458660896765E-02
   1.921325752713213E-02   1.945493055587487E-02   1.969964345709835E-02
   1.994743446769124E-02   2.019834230550308E-02   2.045240617539400E-02
   2.070966577536055E-02   2.097016130273866E-02   2.123393346048445E-02
   2.150102346353421E-02   2.177147304524433E-02   2.204532446391214E-02
   2.232262050937903E-02   2.260340450971622E-02   2.288772033799505E-02
   2.317561241914212E-02   2.346712573688080E-02   2.376230584076014E-02
   2.406119885327188E-02   2.436385147705733E-02   2.467031100220471E-02
   2.498062531363831E-02   2.529484289860065E-02   2.561301285422866E-02
   2.593518489522523E-02   2.626140936162722E-02   2.659173722667119E-02
   2.692622010475816E-02   2.726491025951832E-02   2.760786061197743E-02
   2.795512474882577E-02   2.830675693079125E-02   2.866281210111773E-02
   2.902334589414995E-02   2.938841464402659E-02   2.975807539348255E-02
   3.013238590276200E-02   3.051140465864359E-02   3.089519088357903E-02
   3.128380454494678E-02   3.167730636442208E-02   3.207575782746477E-02
   3.247922119292666E-02   3.288775950277944E-02   3.330143659196520E-02
   3.372031709837075E-02   3.414446647292740E-02   3.457395098983794E-02
   3.500883775693189E-02   3.544919472615139E-02   3.589509070416881E-02
   3.634659536313785E-02   3.680377925158013E-02   3.726671380540834E-02
   3.773547135908837E-02   3.821012515694167E-02   3.869074936458980E-02
   3.917741908054313E-02   3.967021034793487E-02   4.016920016640315E-02
   4.067446650412231E-02   4.118608830998553E-02   4.170414552594102E-02
   4.222871909948260E-02   4.275989099629848E-02   4.329774421307827E-02
   4.384236279048123E-02   4.439383182626826E-02   4.495223748859801E-02
   4.551766702949139E-02   4.609020879846463E-02   4.666995225633380E-02
   4.725698798919387E-02   4.785140772257226E-02   4.845330433576173E-02
   4.906277187633278E-02   4.967990557482838E-02   5.030480185964471E-02
   5.093755837209743E-02   5.157827398167906E-02   5.222704880150723E-02
   5.288398420396730E-02   5.354918283655263E-02   5.422274863790273E-02
   5.490478685404455E-02   5.559540405483707E-02   5.629470815062278E-02
   5.700280840908961E-02   5.771981547234337E-02   5.844584137419656E-02
   5.918099955767356E-02   5.992540489273602E-02   6.067917369423226E-02
   6.144242374007085E-02   6.221527428962441E-02   6.299784610236379E-02
   6.379026145672667E-02   6.459264416922458E-02   6.540511961378856E-02
   6.622781474135996E-02   6.706085809972633E-02   6.790437985360703E-02
   6.875851180499254E-02   6.962338741373773E-02   7.049914181841620E-02
   7.138591185743552E-02   7.228383609041822E-02   7.319305481985278E-02
   7.411371011301525E-02   7.504594582416838E-02   7.598990761703883E-02
   7.694574298757699E-02   7.791360128700442E-02   7.889363374514925E-02
   7.988599349407711E-02   8.089083559201787E-02   8.190831704759344E-02
   8.293859684435159E-02   8.398183596560642E-02   8.503819741959326E-02
   8.610784626493860E-02   8.719094963645047E-02   8.828767677123454E-02
   8.939819903513664E-02   9.052268994952002E-02   9.166132521837803E-02
   9.281428275578767E-02   9.398174271371018E-02   9.516388751013888E-02
   9.636090185760347E-02   9.757297279203127E-02   9.880028970197140E-02
   1.000430443581884E-01   1.013014309436253E-01   1.025756460837466E-01
   1.038658888772603E-01   1.051723609272278E-01   1.064952663725652E-01
   1.078348119199393E-01   1.091912068760676E-01   1.105646631804218E-01
   1.119553954383432E-01   1.133636209545771E-01   1.147895597672250E-01
   1.162334346821277E-01   1.176954713076784E-01   1.191758980900741E-01
   1.206749463490118E-01   1.221928503138314E-01   1.237298471601159E-01
   1.252861770467496E-01   1.268620831534434E-01   1.284578117187331E-01
   1.300736120784530E-01   1.317097367046970E-01   1.333664412452669E-01
   1.350439845636172E-01   1.367426287793050E-01   1.384626393089444E-01
   1.402042849076801E-01   1.419678377111808E-01   1.437535732781595E-01
   1.455617706334320E-01   1.473927123115134E-01   1.492466844007664E-01
   1.511239765881019E-01   1.530248822042432E-01   1.549496982695608E-01
   1.568987255404802E-01   1.588722685564783E-01   1.608706356876668E-01
   1.628941391829751E-01   1.649430952189417E-01   1.670178239491152E-01
   1.691186495540813E-01   1.712459002921150E-01   1.733999085504715E-01
   1.755810108973243E-01   1.777895481343517E-01   1.800258653499908E-01
   1.822903119733567E-01   1.845832418288405E-01   1.869050131913980E-01
   1.892559888425275E-01   1.916365361269579E-01   1.940470270100461E-01
   1.964878381358960E-01   1.989593508862126E-01   2.014619514398907E-01
   2.039960308333592E-01   2.065619850216782E-01   2.091602149404105E-01
   2.117911265682674E-01   2.144551309905425E-01   2.171526444633477E-01
   2.198840884786504E-01   2.226498898301355E-01   2.254504806798917E-01
   2.282862986259362E-01   2.311577867705936E-01   2.340653937897277E-01
   2.370095740028511E-01   2.399907874441126E-01   2.430094999341769E-01
   2.460661831530130E-01   2.491613147135918E-01   2.522953782365173E-01
   2.554688634255917E-01   2.586822661443312E-01   2.619360884934495E-01
   2.652308388893074E-01   2.685670321433582E-01   2.719451895425857E-01
   2.753658389309556E-01   2.788295147918951E-01   2.823367583318033E-01
   2.858881175646195E-01   2.894841473974495E-01   2.931254097172700E-01
   2.968124734787276E-01   3.005459147930353E-01   3.043263170179950E-01
   3.081542708491459E-01   3.120303744120612E-01   3.159552333558096E-01
   3.199294609475852E-01   3.239536781685355E-01   3.280285138107890E-01
   3.321546045757041E-01   3.363325951733586E-01   3.405631384232822E-01
   3.448468953564656E-01   3.491845353186455E-01   3.535767360748897E-01
   3.580241839155038E-01   3.625275737632599E-01   3.670876092819845E-01
   3.717050029865057E-01   3.763804763539825E-01   3.811147599366424E-01
   3.859085934759257E-01   3.907627260180767E-01   3.956779160311817E-01
   4.006549315236788E-01   4.056945501643660E-01   4.107975594039077E-01
   4.159647565978803E-01   4.211969491313590E-01   4.264949545450705E-01
   4.318596006631412E-01   4.372917257224399E-01   4.427921785035597E-01
   4.483618184634391E-01   4.540015158696519E-01   4.597121519363933E-01
   4.654946189621657E-01   4.713498204692070E-01   4.772786713446662E-01
   4.832820979835530E-01   4.893610384334958E-01   4.955164425413057E-01
   5.017492721013986E-01   5.080605010060752E-01   5.144511153976902E-01
   5.209221138227459E-01   5.274745073879098E-01   5.341093199180081E-01
   5.408275881159986E-01   5.476303617249536E-01   5.545187036920914E-01
   5.614936903348575E-01   5.685564115091061E-01   5.757079707793910E-01
   5.829494855913960E-01   5.902820874465458E-01   5.977069220787963E-01
   6.052251496336657E-01   6.128379448495066E-01   6.205464972410576E-01
   6.283520112853154E-01   6.362557066097274E-01   6.442588181827694E-01
   6.523625965069085E-01   6.605683078139926E-01   6.688772342631104E-01
   6.772906741409220E-01   6.858099420645267E-01   6.944363691868715E-01
   7.031713034047421E-01   7.120161095693841E-01   7.209721696997531E-01
   7.300408831984669E-01   7.392236670704615E-01   7.485219561443968E-01
   7.579372032968608E-01   7.674708796793738E-01   7.771244749482682E-01
   7.868994974974468E-01   7.967974746940675E-01   8.068199531172074E-01
   8.169684987995086E-01   8.272446974718823E-01   8.376501548112801E-01
   8.481864966915781E-01   8.588553694376344E-01   8.696584400825188E-01
   8.805973966279997E-01   8.916739483082948E-01   9.028898258571362E-01
   9.142467817782129E-01   9.257465906189905E-01   9.373910492479982E-01
   9.491819771355896E-01   9.611212166382325E-01   9.732106332863932E-01
   9.854521160760153E-01   9.978475777636924E-01   1.010398955165533E+00
   1.023108209459790E+00   1.035977326493306E+00   1.049008317091798E+00
   1.062203217374059E+00   1.075564089070105E+00   1.089093019843319E+00
   1.102792123616663E+00   1.116663540902967E+00   1.130709439139408E+00
   1.144932013026162E+00   1.159333484869332E+00   1.173916104928197E+00
   1.188682151766805E+00   1.203633932610020E+00   1.218773783704020E+00
   1.234104070681336E+00   1.249627188930502E+00   1.265345563970322E+00
   1.281261651828879E+00   1.297377939427283E+00   1.313696944968256E+00
   1.330221218329620E+00   1.346953341462702E+00   1.363895928795785E+00
   1.381051627642613E+00   1.398423118616029E+00   1.416013116046845E+00
   1.433824368407942E+00   1.451859658743740E+00   1.470121805105052E+00
   1.488613660989395E+00   1.507338115786878E+00   1.526298095231653E+00
   1.545496561859086E+00   1.564936515468649E+00   1.584620993592640E+00
   1.604553071970819E+00   1.624735865030978E+00   1.645172526375600E+00
   1.665866249274600E+00   1.686820267164278E+00   1.708037854152566E+00
   1.729522325530592E+00   1.751277038290722E+00   1.773305391651089E+00
   1.795610827586717E+00   1.818196831367357E+00   1.841066932102045E+00
   1.864224703290554E+00   1.887673763381749E+00   1.911417776338972E+00
   1.935460452212561E+00   1.959805547719530E+00   1.984456866830585E+00
   2.009418261364495E+00   2.034693631589932E+00   2.060286926834926E+00
   2.086202146103920E+00   2.112443338702654E+00   2.139014604870864E+00
   2.165920096422940E+00   2.193164017396684E+00   2.220750624710170E+00
   2.248684228826918E+00   2.276969194429409E+00   2.305609941101055E+00
   2.334610944016802E+00   2.363976734642350E+00   2.393711901442234E+00
   2.423821090596768E+00   2.454309006728005E+00   2.485180413634879E+00
   2.516440135037517E+00   2.548093055330992E+00   2.580144120348502E+00
   2.612598338134156E+00   2.645460779725522E+00   2.678736579945946E+00
   2.712430938206919E+00   2.746549119320475E+00   2.781096454321818E+00
   2.816078341302338E+00   2.851500246253038E+00   2.887367703918636E+00
   2.923686318662372E+00   2.960461765341681E+00   2.997699790194936E+00
   3.035406211739270E+00   3.073586921679771E+00   3.112247885830051E+00
   3.151395145044404E+00   3.191034816161739E+00   3.231173092961304E+00
   3.271816247130517E+00   3.312970629244912E+00   3.354642669760412E+00
   3.396838880018141E+00   3.439565853261790E+00   3.482830265667861E+00
   3.526638877388823E+00   3.570998533609373E+00   3.615916165616059E+00
   3.661398791880254E+00   3.707453519154854E+00   3.754087543584702E+00
   3.801308151830979E+00   3.849122722209807E+00   3.897538725845075E+00
   3.946563727835860E+00   3.996205388438474E+00   4.046471464263366E+00
   4.097369809487167E+00   4.148908377079857E+00   4.201095220047485E+00
   4.253938492690447E+00   4.307446451877590E+00   4.361627458336415E+00
   4.416489977959396E+00   4.472042583126853E+00   4.528293954046372E+00
   4.585252880109088E+00   4.642928261263100E+00   4.701329109404036E+00
   4.760464549783245E+00   4.820343822433607E+00   4.880976283613281E+00
   4.942371407267702E+00   5.004538786509832E+00   5.067488135119167E+00
   5.131229289059508E+00   5.195772208015824E+00   5.261126976950532E+00
   5.327303807679225E+00   5.394313040466350E+00   5.462165145640874E+00
   5.530870725232256E+00   5.600440514627110E+00   5.670885384246548E+00
   5.742216341244781E+00   5.814444531228973E+00   5.887581240000739E+00
   5.961637895319643E+00   6.036626068688727E+00   6.112557477162653E+00
   6.189443985178493E+00   6.267297606409527E+00   6.346130505642489E+00
   6.425955000678251E+00   6.506783564256574E+00   6.588628826004979E+00
   6.671503574412105E+00   6.755420758826023E+00   6.840393491477508E+00
   6.926435049528924E+00   7.013558877148782E+00   7.101778587612379E+00
   7.191107965428984E+00   7.281560968495596E+00   7.373151730277988E+00
   7.465894562019042E+00   7.559803954974879E+00   7.654894582679234E+00
   7.751181303236124E+00   7.848679161641545E+00   7.947403392134249E+00
   8.047369420576077E+00   8.148592866862385E+00   8.251089547362568E+00
   8.354875477391497E+00   8.459966873711910E+00   8.566380157068261E+00
   8.674131954752603E+00   8.783239103202522E+00   8.893718650631952E+00
   9.005587859694973E+00   9.118864210183064E+00   9.233565401756486E+00
   9.349709356709752E+00   9.467314222772135E+00   9.586398375943244E+00
   9.706980423364255E+00   9.829079206225439E+00   9.952713802709997E+00
   1.007790353097518E+01   1.020466795217075E+01   1.033302687349539E+01
   1.046300035129173E+01   1.059460869418009E+01   1.072787246623181E+01
   1.086281249018242E+01   1.099944985068517E+01   1.113780589760566E+01
   1.127790224935768E+01   1.141976079628123E+01   1.156340370406290E+01
   1.170885341719924E+01   1.185613266250389E+01   1.200526445265852E+01
   1.215627208980877E+01   1.230917916920521E+01   1.246400958289004E+01
   1.262078752343044E+01   1.277953748769854E+01   1.294028428069927E+01
   1.310305301944609E+01   1.326786913688554E+01   1.343475838587135E+01
   1.360374684318816E+01   1.377486091362625E+01   1.394812733410729E+01
   1.412357317786194E+01   1.430122585866030E+01   1.448111313509511E+01
   1.466326311491934E+01   1.484770425943794E+01   1.503446538795494E+01
   1.522357568227669E+01   1.541506469127138E+01   1.560896233548627E+01