<UPF version="2.0.1">
  <PP_INFO>
    Generated using "atomic" code by A. Dal Corso  v.7.2
    Author: ADC
    Generation date: 22Sep2023
    Pseudopotential type: PAW
    Element: Eu
    Functional:  SLA  PW   PSX  PSC
    Suggested minimum cutoff for wavefunctions: 122. Ry
    Suggested minimum cutoff for charge density: 489. Ry
    The Pseudo was generated with a Scalar-Relativistic Calculation
    Local Potential by smoothing AE potential with Bessel fncs, cutoff radius:   1.7000
    Valence configuration: 
    nl pn  l   occ       Rcut    Rcut US       E pseu
    5S  1  0  2.00      1.300      1.600    -3.415669
    6S  2  0  2.00      1.300      1.600    -0.285842
    5P  2  1  6.00      1.400      1.900    -1.854529
    4D  3  2 10.00      1.050      1.300   -10.138862
    5D  4  2  0.50      1.050      1.300    -0.156200
    4F  4  3  6.50      1.100      1.300    -0.401053
    Generation configuration:
    5S  1  0  2.00      1.300      1.600    -3.415688
    6S  2  0  2.00      1.300      1.600    -0.285848
    5P  2  1  6.00      1.400      1.900    -1.854544
    6P  3  1  0.00      1.400      1.900     0.300000
    4D  3  2 10.00      1.050      1.300   -10.138932
    5D  4  2  0.50      1.050      1.300    -0.156216
    4F  4  3  6.50      1.100      1.300    -0.401101
    4F  4  3  0.00      1.100      1.300     1.000000
    Pseudization used: troullier-martins
    <PP_INPUTFILE>
@input
title='Eu',
zed=63.0,
rel=1,
config='[Xe] 4f6.5 5d0.5 6s2. 6p0.',
iswitch=3,
dft='PBESOL'
/
@inputp
lpaw=.true.,
pseudotype=3,
file_pseudopw='Eu.pbesol-spdfn-kjpaw_psl.1.0.0.UPF',
author='ADC',
lloc=-1,
rcloc=1.7,
which_augfun='PSQ',
rmatch_augfun_nc=.true.,
nlcc=.true.,
new_core_ps=.true.,
rcore=1.2,
tm=.true.
/
8
5S  1  0  2.00  0.00  1.30  1.60  0.0
6S  2  0  2.00  0.00  1.30  1.60  0.0
5P  2  1  6.00  0.00  1.40  1.90  0.0
6P  3  1  0.00  0.30  1.40  1.90  0.0
4D  3  2 10.00  0.00  1.05  1.30  0.0
5D  4  2  0.50  0.00  1.05  1.30  0.0
4F  4  3  6.50  0.00  1.10  1.30  0.0
4F  4  3  0.00  1.00  1.10  1.30  0.0
    </PP_INPUTFILE>
  </PP_INFO>
    <!-- END OF HUMAN READABLE SECTION -->
  <PP_HEADER generated="Generated using 'atomic' code by A. Dal Corso  v.7.2" author="ADC" date="22Sep2023" comment="" element="Eu" pseudo_type="PAW" relativistic="scalar" is_ultrasoft="true" is_paw="true" is_coulomb="false" has_so="false" has_wfc="true" has_gipaw="false" paw_as_gipaw="false" core_correction="true" functional=" SLA  PW   PSX  PSC" z_valence="27.000000000000000" total_psenergy="-1110.3815300046504" wfc_cutoff="122.15873241801252" rho_cutoff="488.63492967205008" l_max="3" l_max_rho="6" l_local="-1" mesh_size="1261" number_of_wfc="6" number_of_proj="8"/>
  <PP_MESH mesh="1261" dx="1.2500000000000001E-002" xmin="-7.0000000000000000" rmax="100.00000000000000" zmesh="63.000000000000000">
    <PP_R>
   1.447431691356375E-05   1.465638140744480E-05   1.484073599073940E-05
   1.502740946922625E-05   1.521643101101619E-05   1.540783015110967E-05
   1.560163679601173E-05   1.579788122840494E-05   1.599659411188112E-05
   1.619780649573261E-05   1.640154981980376E-05   1.660785591940347E-05
   1.681675703027953E-05   1.702828579365551E-05   1.724247526133108E-05
   1.745935890084632E-05   1.767897060071116E-05   1.790134467570051E-05
   1.812651587221599E-05   1.835451937371520E-05   1.858539080620912E-05
   1.881916624382878E-05   1.905588221446192E-05   1.929557570546055E-05
   1.953828416942033E-05   1.978404553003253E-05   2.003289818800975E-05
   2.028488102708610E-05   2.054003342009282E-05   2.079839523511048E-05
   2.106000684169828E-05   2.132490911720201E-05   2.159314345314117E-05
   2.186475176167646E-05   2.213977648215871E-05   2.241826058776003E-05
   2.270024759218848E-05   2.298578155648723E-05   2.327490709591909E-05
   2.356766938693789E-05   2.386411417424718E-05   2.416428777794812E-05
   2.446823710077699E-05   2.477600963543385E-05   2.508765347200345E-05
   2.540321730546927E-05   2.572275044332233E-05   2.604630281326549E-05
   2.637392497101482E-05   2.670566810819907E-05   2.704158406035832E-05
   2.738172531504353E-05   2.772614502001777E-05   2.807489699156064E-05
   2.842803572287730E-05   2.878561639261294E-05   2.914769487347472E-05
   2.951432774096192E-05   2.988557228220599E-05   3.026148650492185E-05
   3.064212914647158E-05   3.102755968304234E-05   3.141783833893963E-05
   3.181302609599745E-05   3.221318470310689E-05   3.261837668586442E-05
   3.302866535634173E-05   3.344411482297832E-05   3.386479000059854E-05
   3.429075662055484E-05   3.472208124099818E-05   3.515883125727804E-05
   3.560107491247307E-05   3.604888130805408E-05   3.650232041468153E-05
   3.696146308313832E-05   3.742638105540052E-05   3.789714697584720E-05
   3.837383440261117E-05   3.885651781907274E-05   3.934527264549776E-05
   3.984017525082220E-05   4.034130296458505E-05   4.084873408901111E-05
   4.136254791124600E-05   4.188282471574479E-05   4.240964579681668E-05
   4.294309347132741E-05   4.348325109156141E-05   4.403020305824585E-05
   4.458403483373830E-05   4.514483295538044E-05   4.571268504901973E-05
   4.628767984270107E-05   4.686990718053090E-05   4.745945803671525E-05
   4.805642452977485E-05   4.866089993693878E-05   4.927297870871918E-05
   4.989275648366953E-05   5.052033010332805E-05   5.115579762734963E-05
   5.179925834882775E-05   5.245081280980924E-05   5.311056281700432E-05
   5.377861145769384E-05   5.445506311583705E-05   5.514002348838180E-05
   5.583359960177981E-05   5.653589982871000E-05   5.724703390501159E-05
   5.796711294683085E-05   5.869624946798305E-05   5.943455739753302E-05
   6.018215209759695E-05   6.093915038136768E-05   6.170567053136714E-05
   6.248183231792831E-05   6.326775701790937E-05   6.406356743364379E-05
   6.486938791212804E-05   6.568534436445138E-05   6.651156428546952E-05
   6.734817677372603E-05   6.819531255162444E-05   6.905310398585347E-05
   6.992168510806994E-05   7.080119163584130E-05   7.169176099385184E-05
   7.259353233537576E-05   7.350664656401977E-05   7.443124635573985E-05
   7.536747618113456E-05   7.631548232801882E-05   7.727541292428196E-05
   7.824741796103256E-05   7.923164931603519E-05   8.022826077744149E-05
   8.123740806781986E-05   8.225924886848769E-05   8.329394284414896E-05
   8.434165166784248E-05   8.540253904620350E-05   8.647677074504326E-05
   8.756451461525035E-05   8.866594061901745E-05   8.978122085639854E-05
   9.091052959219976E-05   9.205404328320860E-05   9.321194060576591E-05
   9.438440248368403E-05   9.557161211651681E-05   9.677375500818473E-05
   9.799101899596034E-05   9.922359427981844E-05   1.004716734521547E-04
   1.017354515278791E-04   1.030151259748871E-04   1.043108967449145E-04
   1.056229663047805E-04   1.069515396680233E-04   1.082968244269338E-04
   1.096590307849926E-04   1.110383715897145E-04   1.124350623659068E-04
   1.138493213493444E-04   1.152813695208713E-04   1.167314306409276E-04
   1.181997312845133E-04   1.196865008765917E-04   1.211919717279359E-04
   1.227163790714297E-04   1.242599610988218E-04   1.258229589979444E-04
   1.274056169903994E-04   1.290081823697176E-04   1.306309055400005E-04
   1.322740400550446E-04   1.339378426579608E-04   1.356225733212912E-04
   1.373284952876291E-04   1.390558751107528E-04   1.408049826972739E-04
   1.425760913488114E-04   1.443694778046956E-04   1.461854222852086E-04
   1.480242085353703E-04   1.498861238692732E-04   1.517714592149763E-04
   1.536805091599634E-04   1.556135719971719E-04   1.575709497716033E-04
   1.595529483275172E-04   1.615598773562201E-04   1.635920504444563E-04
   1.656497851234048E-04   1.677334029182961E-04   1.698432293986497E-04
   1.719795942291453E-04   1.741428312211347E-04   1.763332783847985E-04
   1.785512779819629E-04   1.807971765795774E-04   1.830713251038670E-04
   1.853740788951659E-04   1.877057977634384E-04   1.900668460445019E-04
   1.924575926569540E-04   1.948784111598165E-04   1.973296798109062E-04
   1.998117816259365E-04   2.023251044383662E-04   2.048700409599980E-04
   2.074469888423410E-04   2.100563507387451E-04   2.126985343673147E-04
   2.153739525746180E-04   2.180830234001927E-04   2.208261701418670E-04
   2.236038214219006E-04   2.264164112539564E-04   2.292643791109187E-04
   2.321481699935591E-04   2.350682345000698E-04   2.380250288964717E-04
   2.410190151879039E-04   2.440506611908164E-04   2.471204406060649E-04
   2.502288330929284E-04   2.533763243440575E-04   2.565634061613631E-04
   2.597905765328639E-04   2.630583397104961E-04   2.663672062889041E-04
   2.697176932852235E-04   2.731103242198632E-04   2.765456291983098E-04
   2.800241449939550E-04   2.835464151319688E-04   2.871129899742272E-04
   2.907244268053044E-04   2.943812899195537E-04   2.980841507092763E-04
   3.018335877540040E-04   3.056301869109037E-04   3.094745414063174E-04
   3.133672519284568E-04   3.173089267212608E-04   3.213001816794348E-04
   3.253416404446866E-04   3.294339345031705E-04   3.335777032841592E-04
   3.377735942599552E-04   3.420222630470599E-04   3.463243735086154E-04
   3.506805978581340E-04   3.550916167645334E-04   3.595581194584916E-04
   3.640808038401418E-04   3.686603765881203E-04   3.732975532699858E-04
   3.779930584540298E-04   3.827476258224901E-04   3.875619982861910E-04
   3.924369281006254E-04   3.973731769834944E-04   4.023715162337293E-04
   4.074327268520069E-04   4.125575996627833E-04   4.177469354378621E-04
   4.230015450215157E-04   4.283222494571823E-04   4.337098801157551E-04
   4.391652788254854E-04   4.446892980035210E-04   4.502828007890969E-04
   4.559466611784037E-04   4.616817641611504E-04   4.674890058588459E-04
   4.733692936648208E-04   4.793235463860080E-04   4.853526943865094E-04
   4.914576797329666E-04   4.976394563417601E-04   5.038989901280628E-04
   5.102372591567630E-04   5.166552537952926E-04   5.231539768683709E-04
   5.297344438146996E-04   5.363976828456279E-04   5.431447351058101E-04
   5.499766548358893E-04   5.568945095372228E-04   5.638993801386820E-04
   5.709923611655503E-04   5.781745609105434E-04   5.854471016069843E-04
   5.928111196041527E-04   6.002677655448426E-04   6.078182045451534E-04
   6.154636163765398E-04   6.232051956501558E-04   6.310441520035130E-04
   6.389817102894897E-04   6.470191107677179E-04   6.551576092983738E-04
   6.633984775384114E-04   6.717430031402590E-04   6.801924899530188E-04
   6.887482582261964E-04   6.974116448159909E-04   7.061840033941829E-04
   7.150667046596480E-04   7.240611365525303E-04   7.331687044711130E-04
   7.423908314914124E-04   7.517289585895386E-04   7.611845448668488E-04
   7.707590677779361E-04   7.804540233614855E-04   7.902709264740309E-04
   8.002113110266568E-04   8.102767302246732E-04   8.204687568103081E-04
   8.307889833084505E-04   8.412390222754889E-04   8.518205065512719E-04
   8.625350895142459E-04   8.733844453397978E-04   8.843702692618475E-04
   8.954942778377357E-04   9.067582092164333E-04   9.181638234101346E-04
   9.297129025692628E-04   9.414072512609321E-04   9.532486967509197E-04
   9.652390892891742E-04   9.773803023989244E-04   9.896742331694200E-04
   1.002122802552355E-03   1.014727955662025E-03   1.027491662079247E-03
   1.040415916159117E-03   1.053502737342629E-03   1.066754170472218E-03
   1.080172286111273E-03   1.093759180867660E-03   1.107516977721328E-03
   1.121447826356026E-03   1.135553903495194E-03   1.149837413242087E-03
   1.164300587424161E-03   1.178945685941808E-03   1.193774997121467E-03
   1.208790838073180E-03   1.223995555052646E-03   1.239391523827828E-03
   1.254981150050170E-03   1.270766869630485E-03   1.286751149119575E-03
   1.302936486093632E-03   1.319325409544485E-03   1.335920480274768E-03
   1.352724291298046E-03   1.369739468243976E-03   1.386968669768578E-03
   1.404414587969640E-03   1.422079948807376E-03   1.439967512530358E-03
   1.458080074106808E-03   1.476420463661325E-03   1.494991546917090E-03
   1.513796225643645E-03   1.532837438110299E-03   1.552118159545239E-03
   1.571641402600418E-03   1.591410217822282E-03   1.611427694128430E-03
   1.631696959290261E-03   1.652221180421693E-03   1.673003564474037E-03
   1.694047358737083E-03   1.715355851346497E-03   1.736932371797603E-03
   1.758780291465619E-03   1.780903024132440E-03   1.803304026520060E-03
   1.825986798830673E-03   1.848954885293603E-03   1.872211874719089E-03
   1.895761401059042E-03   1.919607143974868E-03   1.943752829412412E-03
   1.968202230184147E-03   1.992959166558688E-03   2.018027506857708E-03
   2.043411168060385E-03   2.069114116415424E-03   2.095140368060798E-03
   2.121493989651278E-03   2.148179098993852E-03   2.175199865691150E-03
   2.202560511792941E-03   2.230265312455844E-03   2.258318596611328E-03
   2.286724747642115E-03   2.315488204067102E-03   2.344613460234871E-03
   2.374105067025954E-03   2.403967632563916E-03   2.434205822935373E-03
   2.464824362919095E-03   2.495828036724248E-03   2.527221688737942E-03
   2.559010224282173E-03   2.591198610380292E-03   2.623791876533120E-03
   2.656795115504802E-03   2.690213484118575E-03   2.724052204062521E-03
   2.758316562705478E-03   2.793011913923199E-03   2.828143678934897E-03
   2.863717347150331E-03   2.899738477027536E-03   2.936212696941338E-03
   2.973145706062810E-03   3.010543275249767E-03   3.048411247948479E-03
   3.086755541106725E-03   3.125582146098318E-03   3.164897129659288E-03
   3.204706634835801E-03   3.245016881944033E-03   3.285834169542108E-03
   3.327164875414251E-03   3.369015457567351E-03   3.411392455240010E-03
   3.454302489924334E-03   3.497752266400539E-03   3.541748573784600E-03
   3.586298286589062E-03   3.631408365797183E-03   3.677085859950617E-03
   3.723337906250759E-03   3.770171731673939E-03   3.817594654100670E-03
   3.865614083459060E-03   3.914237522882644E-03   3.963472569882757E-03
   4.013326917535658E-03   4.063808355684605E-03   4.114924772157010E-03
   4.166684153996943E-03   4.219094588713123E-03   4.272164265542601E-03
   4.325901476730359E-03   4.380314618824972E-03   4.435412193990594E-03
   4.491202811335446E-03   4.547695188256986E-03   4.604898151804053E-03
   4.662820640056078E-03   4.721471703519694E-03   4.780860506542894E-03
   4.840996328746973E-03   4.901888566476506E-03   4.963546734267522E-03
   5.025980466334181E-03   5.089199518074141E-03   5.153213767592853E-03
   5.218033217247051E-03   5.283667995207614E-03   5.350128357042135E-03
   5.417424687317364E-03   5.485567501221818E-03   5.554567446208816E-03
   5.624435303660140E-03   5.695181990570663E-03   5.766818561254151E-03
   5.839356209070513E-03   5.912806268174810E-03   5.987180215288207E-03
   6.062489671491256E-03   6.138746404039707E-03   6.215962328203158E-03
   6.294149509126872E-03   6.373320163716933E-03   6.453486662549196E-03
   6.534661531802203E-03   6.616857455214419E-03   6.700087276066120E-03
   6.784363999186140E-03   6.869700792983929E-03   6.956110991507136E-03
   7.043608096525078E-03   7.132205779638439E-03   7.221917884415455E-03
   7.312758428555017E-03   7.404741606076963E-03   7.497881789539916E-03
   7.592193532287050E-03   7.687691570720042E-03   7.784390826601689E-03
   7.882306409387458E-03   7.981453618586364E-03   8.081847946151575E-03
   8.183505078901020E-03   8.286440900968514E-03   8.390671496285678E-03
   8.496213151095083E-03   8.603082356495035E-03   8.711295811016295E-03
   8.820870423231297E-03   8.931823314396129E-03   9.044171821125761E-03
   9.157933498102965E-03   9.273126120821207E-03   9.389767688362151E-03
   9.507876426208027E-03   9.627470789089420E-03   9.748569463868855E-03
   9.871191372460640E-03   9.995355674787466E-03   1.012108177177419E-02
   1.024838930837924E-02   1.037729817666424E-02   1.050782851890213E-02
   1.064000073072444E-02   1.077383546430817E-02   1.090935363160273E-02
   1.104657640759749E-02   1.118552523363038E-02   1.132622182073814E-02
   1.146868815304877E-02   1.161294649121654E-02   1.175901937590029E-02
   1.190692963128543E-02   1.205670036865030E-02   1.220835498997732E-02
   1.236191719160960E-02   1.251741096795360E-02   1.267486061522821E-02
   1.283429073526116E-02   1.299572623933306E-02   1.315919235206985E-02
   1.332471461538424E-02   1.349231889246664E-02   1.366203137182632E-02
   1.383387857138347E-02   1.400788734261263E-02   1.418408487473835E-02
   1.436249869898349E-02   1.454315669287108E-02   1.472608708458021E-02
   1.491131845735676E-02   1.509887975397959E-02   1.528880028128289E-02
   1.548110971473545E-02   1.567583810307750E-02   1.587301587301587E-02
   1.607267383397833E-02   1.627484318292745E-02   1.647955550923533E-02
   1.668684279961944E-02   1.689673744314062E-02   1.710927223626400E-02
   1.732448038798336E-02   1.754239552501029E-02   1.776305169702827E-02
   1.798648338201312E-02   1.821272549162020E-02   1.844181337663942E-02
   1.867378283251891E-02   1.890867010495808E-02   1.914651189557112E-02
   1.938734536762175E-02   1.963120815182992E-02   1.987813835225182E-02
   2.012817455223366E-02   2.038135582044034E-02   2.063772171696018E-02
   2.089731229948606E-02   2.116016812957466E-02   2.142633027898419E-02
   2.169584033609201E-02   2.196874041239288E-02   2.224507314907895E-02
   2.252488172370251E-02   2.280820985692263E-02   2.309510181933653E-02
   2.338560243839708E-02   2.367975710541700E-02   2.397761178266148E-02
   2.427921301052984E-02   2.458460791482751E-02   2.489384421412967E-02
   2.520697022723721E-02   2.552403488072673E-02   2.584508771659541E-02
   2.617017890000203E-02   2.649935922710545E-02   2.683268013300146E-02
   2.717019369975977E-02   2.751195266456185E-02   2.785801042794125E-02
   2.820842106212760E-02   2.856323931949539E-02   2.892252064111921E-02
   2.928632116543653E-02   2.965469773701940E-02   3.002770791545667E-02
   3.040540998434757E-02   3.078786296040881E-02   3.117512660269601E-02
   3.156726142194114E-02   3.196432869000757E-02   3.236639044946374E-02
   3.277350952327758E-02   3.318574952463265E-02   3.360317486686785E-02
   3.402585077354221E-02   3.445384328862608E-02   3.488721928682068E-02
   3.532604648400745E-02   3.577039344782871E-02   3.622032960840165E-02
   3.667592526916674E-02   3.713725161787289E-02   3.760438073770066E-02
   3.807738561852537E-02   3.855634016832205E-02   3.904131922471350E-02
   3.953239856666400E-02   4.002965492631984E-02   4.053316600099884E-02
   4.104301046533090E-02   4.155926798355082E-02   4.208201922194615E-02
   4.261134586146147E-02   4.314733061046103E-02   4.369005721765250E-02
   4.423961048517225E-02   4.479607628183650E-02   4.535954155655818E-02
   4.593009435193272E-02   4.650782381799531E-02   4.709282022615029E-02
   4.768517498327670E-02   4.828498064601056E-02   4.889233093520684E-02
   4.950732075058405E-02   5.013004618555189E-02   5.076060454222658E-02
   5.139909434663434E-02   5.204561536410593E-02   5.270026861486590E-02
   5.336315638981635E-02   5.403438226652092E-02   5.471405112538853E-02
   5.540226916606097E-02   5.609914392400751E-02   5.680478428732667E-02
   5.751930051376097E-02   5.824280424792455E-02   5.897540853874768E-02
   5.971722785714150E-02   6.046837811388353E-02   6.122897667772973E-02
   6.199914239375325E-02   6.277899560191393E-02   6.356865815586236E-02
   6.436825344197900E-02   6.517790639865415E-02   6.599774353580970E-02
   6.682789295466603E-02   6.766848436775909E-02   6.851964911920706E-02
   6.938152020523423E-02   7.025423229495140E-02   7.113792175139785E-02
   7.203272665284932E-02   7.293878681439191E-02   7.385624380976934E-02
   7.478524099350388E-02   7.572592352329528E-02   7.667843838270291E-02
   7.764293440411121E-02   7.861956229198593E-02   7.960847464642164E-02
   8.060982598698542E-02   8.162377277686177E-02   8.265047344729921E-02
   8.369008842236650E-02   8.474278014401873E-02   8.580871309747884E-02
   8.688805383693976E-02   8.798097101158768E-02   8.908763539195484E-02
   9.020821989660235E-02   9.134289961913858E-02   9.249185185557904E-02
   9.365525613204791E-02   9.483329423283050E-02   9.602615022877699E-02
   9.723401050606327E-02   9.845706379531542E-02   9.969550120109788E-02
   1.009495162317751E-01   1.022193048297470E-01   1.035050654020653E-01
   1.048069988514355E-01   1.061253086076075E-01   1.074602006591631E-01
   1.088118835857013E-01   1.101805685904291E-01   1.115664695331635E-01
   1.129698029637460E-01   1.143907881558804E-01   1.158296471413942E-01
   1.172866047449310E-01   1.187618886190807E-01   1.202557292799500E-01
   1.217683601431814E-01   1.233000175604250E-01   1.248509408562681E-01
   1.264213723656314E-01   1.280115574716329E-01   1.296217446439309E-01
   1.312521854775472E-01   1.329031347321788E-01   1.345748503720061E-01
   1.362675936059984E-01   1.379816289287302E-01   1.397172241617081E-01
   1.414746504952180E-01   1.432541825307005E-01   1.450560983236560E-01
   1.468806794270935E-01   1.487282109355228E-01   1.505989815295004E-01
   1.524932835207383E-01   1.544114128977760E-01   1.563536693722314E-01
   1.583203564256306E-01   1.603117813568262E-01   1.623282553300160E-01
   1.643700934233602E-01   1.664376146782154E-01   1.685311421489843E-01
   1.706510029535929E-01   1.727975283246055E-01   1.749710536609778E-01
   1.771719185804661E-01   1.794004669726919E-01   1.816570470528749E-01
   1.839420114162445E-01   1.862557170931304E-01   1.885985256047523E-01
   1.909708030197070E-01   1.933729200111662E-01   1.958052519147979E-01
   1.982681787874097E-01   2.007620854663369E-01   2.032873616295721E-01
   2.058444018566529E-01   2.084336056903179E-01   2.110553776989331E-01
   2.137101275397097E-01   2.163982700227105E-01   2.191202251756682E-01
   2.218764183096134E-01   2.246672800853303E-01   2.274932465806500E-01
   2.303547593585861E-01   2.332522655363324E-01   2.361862178551246E-01
   2.391570747509808E-01   2.421653004263362E-01   2.452113649225718E-01
   2.482957441934630E-01   2.514189201795465E-01   2.545813808834234E-01
   2.577836204460136E-01   2.610261392237629E-01   2.643094438668277E-01
   2.676340473982389E-01   2.710004692940613E-01   2.744092355645661E-01
   2.778608788364173E-01   2.813559384358991E-01   2.848949604731850E-01
   2.884784979276677E-01   2.921071107343662E-01   2.957813658714130E-01
   2.995018374486489E-01   3.032691067973280E-01   3.070837625609495E-01
   3.109464007872384E-01   3.148576250212751E-01   3.188180463998043E-01
   3.228282837467242E-01   3.268889636697783E-01   3.310007206584672E-01
   3.351641971831846E-01   3.393800437956086E-01   3.436489192303504E-01
   3.479714905078805E-01   3.523484330387566E-01   3.567804307291528E-01
   3.612681760877259E-01   3.658123703338191E-01   3.704137235070273E-01
   3.750729545781468E-01   3.797907915615104E-01   3.845679716287457E-01
   3.894052412239583E-01   3.943033561803627E-01   3.992630818383873E-01
   4.042851931652555E-01   4.093704748760804E-01   4.145197215564761E-01
   4.197337377867111E-01   4.250133382674310E-01   4.303593479469509E-01
   4.357726021501603E-01   4.412539467090427E-01   4.468042380948358E-01
   4.524243435518622E-01   4.581151412330323E-01   4.638775203370626E-01
   4.697123812474124E-01   4.756206356729686E-01   4.816032067905073E-01
   4.876610293889355E-01   4.937950500153597E-01   5.000062271229836E-01
   5.062955312208651E-01   5.126639450255670E-01   5.191124636147012E-01
   5.256420945824176E-01   5.322538581968407E-01   5.389487875594849E-01
   5.457279287666862E-01   5.525923410730484E-01   5.595430970569609E-01
   5.665812827881891E-01   5.737079979975704E-01   5.809243562488577E-01
   5.882314851127078E-01   5.956305263428731E-01   6.031226360546000E-01
   6.107089849052720E-01   6.183907582773337E-01   6.261691564635009E-01
   6.340453948543164E-01   6.420207041280546E-01   6.500963304430127E-01
   6.582735356322351E-01   6.665535974006668E-01   6.749378095248061E-01
   6.834274820548566E-01   6.920239415194208E-01   7.007285311327823E-01
   7.095426110047756E-01   7.184675583533137E-01   7.275047677195796E-01
   7.366556511859202E-01   7.459216385964976E-01   7.553041777806937E-01
   7.648047347793463E-01   7.744247940738168E-01   7.841658588179395E-01
   7.940294510729018E-01   8.040171120450582E-01   8.141304023267572E-01
   8.243709021401824E-01   8.347402115842611E-01   8.452399508846936E-01
   8.558717606471042E-01   8.666373021134006E-01   8.775382574213411E-01
   8.885763298673676E-01   8.997532441727598E-01   9.110707467531148E-01
   9.225306059912379E-01   9.341346125134518E-01   9.458845794693808E-01
   9.577823428152707E-01   9.698297616008472E-01   9.820287182598076E-01
   9.943811189039511E-01   1.006888893621005E+00   1.019553996776221E+00
   1.032378407317730E+00   1.045364129085773E+00   1.058513191125797E+00
   1.071827648005494E+00   1.085309580135845E+00   1.098961094096169E+00
   1.112784322963299E+00   1.126781426644872E+00   1.140954592216811E+00
   1.155306034265075E+00   1.169837995231680E+00   1.184552745765094E+00
   1.199452585075027E+00   1.214539841291681E+00   1.229816871829539E+00
   1.245286063755701E+00   1.260949834162878E+00   1.276810630547069E+00
   1.292870931189970E+00   1.309133245546240E+00   1.325600114635576E+00
   1.342274111439778E+00   1.359157841304772E+00   1.376253942347697E+00
   1.393565085869126E+00   1.411093976770450E+00   1.428843353976537E+00
   1.446815990863690E+00   1.465014695692982E+00   1.483442312049075E+00
   1.502101719284510E+00   1.520995832969633E+00   1.540127605348150E+00
   1.559500025798414E+00   1.579116121300539E+00   1.598978956909351E+00
   1.619091636233329E+00   1.639457301919537E+00   1.660079136144670E+00
   1.680960361112286E+00   1.702104239556263E+00   1.723514075250629E+00
   1.745193213525772E+00   1.767145041791149E+00   1.789372990064592E+00
   1.811880531508239E+00   1.834671182971233E+00   1.857748505539237E+00
   1.881116105090846E+00   1.904777632861041E+00   1.928736786011666E+00
   1.952997308209151E+00   1.977562990209452E+00   2.002437670450352E+00
   2.027625235651255E+00   2.053129621420460E+00   2.078954812870137E+00
   2.105104845238995E+00   2.131583804522786E+00   2.158395828112780E+00
   2.185545105442202E+00   2.213035878640876E+00   2.240872443198048E+00
   2.269059148633556E+00   2.297600399177478E+00   2.326500654458273E+00
   2.355764430199629E+00   2.385396298926048E+00   2.415400890677295E+00
   2.445782893731888E+00   2.476547055339605E+00   2.507698182463293E+00
   2.539241142529947E+00   2.571180864191243E+00   2.603522338093682E+00
   2.636270617658351E+00   2.669430819870563E+00   2.703008126079383E+00
   2.737007782807212E+00   2.771435102569594E+00   2.806295464705277E+00
   2.841594316216772E+00   2.877337172621450E+00   2.913529618813333E+00
   2.950177309935783E+00   2.987285972265087E+00   3.024861404105238E+00
   3.062909476693914E+00   3.101436135119856E+00   3.140447399251837E+00
   3.179949364679235E+00   3.219948203664522E+00   3.260450166107672E+00
   3.301461580522708E+00   3.342988855026583E+00   3.385038478340414E+00
   3.427617020803399E+00   3.470731135399431E+00   3.514387558796622E+00
   3.558593112399957E+00   3.603354703417113E+00   3.648679325937759E+00
   3.694574062026386E+00   3.741046082828867E+00   3.788102649693013E+00
   3.835751115303123E+00   3.883998924828895E+00   3.932853617088735E+00
   3.982322825727692E+00   4.032414280410274E+00   4.083135808028174E+00
   4.134495333923282E+00   4.186500883126020E+00   4.239160581609240E+00
   4.292482657557984E+00   4.346475442655088E+00   4.401147373383079E+00
   4.456506992342374E+00   4.512562949586046E+00   4.569324003971482E+00
   4.626799024528892E+00   4.684996991847179E+00   4.743926999477152E+00
   4.803598255352378E+00   4.864020083228009E+00   4.925201924137562E+00
   4.987153337868162E+00   5.049884004454255E+00   5.113403725690103E+00
   5.177722426661401E+00   5.242850157296014E+00   5.308797093934365E+00
   5.375573540919485E+00   5.443189932207054E+00   5.511656832995795E+00
   5.580984941378235E+00   5.651185090012366E+00   5.722268247814250E+00
   5.794245521671887E+00   5.867128158180781E+00   5.940927545401146E+00
   6.015655214637389E+00   6.091322842239877E+00   6.167942251429346E+00
   6.245525414144388E+00   6.324084452911999E+00   6.403631642741827E+00
   6.484179413044136E+00   6.565740349571886E+00   6.648327196387370E+00
   6.731952857853406E+00   6.816630400649744E+00   6.902373055814740E+00
   6.989194220812681E+00   7.077107461627262E+00   7.166126514881198E+00
   7.256265289982682E+00   7.347537871298723E+00   7.439958520355826E+00
   7.533541678068459E+00   7.628301966995386E+00   7.724254193624559E+00
   7.821413350686615E+00   7.919794619497493E+00   8.019413372330627E+00
   8.120285174818797E+00   8.222425788386381E+00   8.325851172712071E+00
   8.430577488222557E+00   8.536621098617736E+00   8.643998573427451E+00
   8.752726690600616E+00   8.862822439126761E+00   8.974303021690558E+00
   9.087185857359870E+00   9.201488584307404E+00   9.317229062566806E+00
   9.434425376823306E+00   9.553095839239401E+00   9.673258992316319E+00
   9.794933611791169E+00   9.918138709570808E+00   1.004289353670245E+01
   1.016921758638160E+01   1.029713059699808E+01   1.042665255522000E+01
   1.055780369911685E+01   1.069060452132174E+01   1.082507577223326E+01
   1.096123846325801E+01   1.109911387009343E+01   1.123872353605237E+01
   1.138008927542920E+01   1.152323317690828E+01   1.166817760701546E+01
   1.181494521361281E+01   1.196355892943748E+01   1.211404197568495E+01
   1.226641786563730E+01   1.242071040833741E+01   1.257694371230892E+01
   1.273514218932348E+01   1.289533055821498E+01   1.305753384874194E+01
   1.322177740549855E+01   1.338808689187466E+01   1.355648829406590E+01
   1.372700792513400E+01   1.389967242911819E+01   1.407450878519856E+01
   1.425154431191140E+01   1.443080667141797E+01   1.461232387382668E+01
   1.479612428156966E+01   1.498223661383460E+01   1.517068995105203E+01
   1.536151373943931E+01   1.555473779560166E+01   1.575039231119089E+01
   1.594850785762320E+01   1.614911539085573E+01   1.635224625622371E+01