<UPF version="2.0.1">
  <PP_INFO>
    Generated using "atomic" code by A. Dal Corso  v.7.2
    Author: ADC
    Generation date: 22Sep2023
    Pseudopotential type: PAW
    Element:  I
    Functional:  SLA  PW   PSX  PSC
    Suggested minimum cutoff for wavefunctions:  69. Ry
    Suggested minimum cutoff for charge density: 278. Ry
    The Pseudo was generated with a Scalar-Relativistic Calculation
    Local Potential by smoothing AE potential with Bessel fncs, cutoff radius:   1.9000
    Valence configuration: 
    nl pn  l   occ       Rcut    Rcut US       E pseu
    5S  1  0  2.00      1.300      1.700    -1.282421
    5P  2  1  5.00      1.400      1.800    -0.521653
    4D  3  2 10.00      1.300      1.700    -3.690353
    Generation configuration:
    5S  1  0  2.00      1.300      1.700    -1.282413
    5S  1  0  0.00      1.300      1.700     6.000000
    5P  2  1  5.00      1.400      1.800    -0.521650
    5P  2  1  0.00      1.400      1.800     6.000000
    4D  3  2 10.00      1.300      1.700    -3.690353
    4D  3  2  0.00      1.300      1.700    -2.500000
    Pseudization used: troullier-martins
    <PP_INPUTFILE>
@input
title='I',
zed=53.,
rel=1,
config='[Kr] 5s2 5p5 4d10',
iswitch=3,
dft='PBESOL'
/
@inputp
lpaw=.true.,
pseudotype=3,
file_pseudopw='I.pbesol-dn-kjpaw_psl.1.0.0.UPF',
author='ADC',
lloc=-1,
rcloc=1.9,
which_augfun='PSQ',
rmatch_augfun_nc=.true.,
nlcc=.true.,
new_core_ps=.true.,
rcore=1.2,
tm=.true.
/
6
5S  1  0  2.00  0.00  1.30  1.70  0.0
5S  1  0  0.00  6.00  1.30  1.70  0.0
5P  2  1  5.00  0.00  1.40  1.80  0.0
5P  2  1  0.00  6.00  1.40  1.80  0.0
4D  3  2 10.00  0.00  1.30  1.70  0.0
4D  3  2  0.00 -2.50  1.30  1.70  0.0
    </PP_INPUTFILE>
  </PP_INFO>
    <!-- END OF HUMAN READABLE SECTION -->
  <PP_HEADER generated="Generated using 'atomic' code by A. Dal Corso  v.7.2" author="ADC" date="22Sep2023" comment="" element=" I" pseudo_type="PAW" relativistic="scalar" is_ultrasoft="true" is_paw="true" is_coulomb="false" has_so="false" has_wfc="true" has_gipaw="false" paw_as_gipaw="false" core_correction="true" functional=" SLA  PW   PSX  PSC" z_valence="17.000000000000000" total_psenergy="-545.25759343428024" wfc_cutoff="69.397841219766576" rho_cutoff="277.59136487906630" l_max="2" l_max_rho="4" l_local="-1" mesh_size="1247" number_of_wfc="3" number_of_proj="6"/>
  <PP_MESH mesh="1247" dx="1.2500000000000001E-002" xmin="-7.0000000000000000" rmax="100.00000000000000" zmesh="53.000000000000000">
    <PP_R>
   1.720532010480219E-05   1.742173638998155E-05   1.764087485691664E-05
   1.786276974643876E-05   1.808745573007585E-05   1.831496791546998E-05
   1.854534185186299E-05   1.877861353565116E-05   1.901481941600963E-05
   1.925399640058782E-05   1.949618186127617E-05   1.974141364004563E-05
   1.998973005486057E-05   2.024116990566598E-05   2.049577248045015E-05
   2.075357756138336E-05   2.101462543103402E-05   2.127895687866288E-05
   2.154661320659637E-05   2.181763623668034E-05   2.209206831681461E-05
   2.236995232757005E-05   2.265133168888869E-05   2.293625036686820E-05
   2.322475288063172E-05   2.351688430928395E-05   2.381269029895499E-05
   2.411221706993254E-05   2.441551142388392E-05   2.472262075116906E-05
   2.503359303824512E-05   2.534847687516466E-05   2.566732146316781E-05
   2.599017662237013E-05   2.631709279954715E-05   2.664812107601663E-05
   2.698331317562027E-05   2.732272147280558E-05   2.766639900080949E-05
   2.801439945994503E-05   2.836677722599193E-05   2.872358735869305E-05
   2.908488561035755E-05   2.945072843457231E-05   2.982117299502296E-05
   3.019627717442574E-05   3.057609958357182E-05   3.096069957048540E-05
   3.135013722969687E-05   3.174447341163285E-05   3.214376973212403E-05
   3.254808858203288E-05   3.295749313700226E-05   3.337204736732681E-05
   3.379181604794848E-05   3.421686476857765E-05   3.464725994394165E-05
   3.508306882416228E-05   3.552435950526372E-05   3.597120093981277E-05
   3.642366294769263E-05   3.688181622701259E-05   3.734573236515465E-05
   3.781548384995923E-05   3.829114408105158E-05   3.877278738131054E-05
   3.926048900848168E-05   3.975432516693649E-05   4.025437301957940E-05
   4.076071069990480E-05   4.127341732420538E-05   4.179257300393428E-05
   4.231825885822270E-05   4.285055702655484E-05   4.338955068160257E-05
   4.393532404222101E-05   4.448796238660817E-05   4.504755206562969E-05
   4.561418051631139E-05   4.618793627550157E-05   4.676890899370487E-05
   4.735718944909054E-05   4.795286956167657E-05   4.855604240769245E-05
   4.916680223412261E-05   4.978524447343248E-05   5.041146575848020E-05
   5.104556393761560E-05   5.168763808996922E-05   5.233778854093375E-05
   5.299611687783986E-05   5.366272596582957E-05   5.433771996392912E-05
   5.502120434132392E-05   5.571328589383861E-05   5.641407276062378E-05
   5.712367444105312E-05   5.784220181183289E-05   5.856976714432658E-05
   5.930648412209774E-05   6.005246785867296E-05   6.080783491552880E-05
   6.157270332030468E-05   6.234719258524494E-05   6.313142372587306E-05
   6.392551927990022E-05   6.472960332637235E-05   6.554380150505762E-05
   6.636824103607790E-05   6.720305073978736E-05   6.804836105690057E-05
   6.890430406887441E-05   6.977101351854588E-05   7.064862483102982E-05
   7.153727513487939E-05   7.243710328351252E-05   7.334824987690812E-05
   7.427085728357516E-05   7.520506966279793E-05   7.615103298716147E-05
   7.710889506535974E-05   7.807880556529127E-05   7.906091603744489E-05
   8.005537993858001E-05   8.106235265570453E-05   8.208199153035414E-05
   8.311445588317747E-05   8.415990703883023E-05   8.521850835118238E-05
   8.629042522884289E-05   8.737582516100464E-05   8.847487774361531E-05
   8.958775470587694E-05   9.071462993707898E-05   9.185567951376911E-05
   9.301108172726513E-05   9.418101711151353E-05   9.536566847129838E-05
   9.656522091080474E-05   9.777986186254197E-05   9.900978111662990E-05
   1.002551708504542E-04   1.015162256586947E-04   1.027931425837307E-04
   1.040861211464296E-04   1.053953633773226E-04   1.067210738481719E-04
   1.080634597039356E-04   1.094227306951347E-04   1.107990992106274E-04
   1.121927803107942E-04   1.136039917611426E-04   1.150329540663328E-04
   1.164798905046321E-04   1.179450271628030E-04   1.194285929714292E-04
   1.209308197406865E-04   1.224519421965639E-04   1.239921980175399E-04
   1.255518278717203E-04   1.271310754544428E-04   1.287301875263552E-04
   1.303494139519723E-04   1.319890077387172E-04   1.336492250764552E-04
   1.353303253775226E-04   1.370325713172621E-04   1.387562288750648E-04
   1.405015673759309E-04   1.422688595325524E-04   1.440583814879238E-04
   1.458704128584919E-04   1.477052367778448E-04   1.495631399409527E-04
   1.514444126489653E-04   1.533493488545700E-04   1.552782462079251E-04
   1.572314061031662E-04   1.592091337255006E-04   1.612117380988933E-04
   1.632395321343516E-04   1.652928326788194E-04   1.673719605646841E-04
   1.694772406599078E-04   1.716090019187891E-04   1.737675774333611E-04
   1.759533044854401E-04   1.781665245993248E-04   1.804075835951605E-04
   1.826768316429753E-04   1.849746233173930E-04   1.873013176530379E-04
   1.896572782006337E-04   1.920428730838089E-04   1.944584750566179E-04
   1.969044615617831E-04   1.993812147896727E-04   2.018891217380175E-04
   2.044285742723802E-04   2.069999691873866E-04   2.096037082687227E-04
   2.122401983559182E-04   2.149098514059128E-04   2.176130845574268E-04
   2.203503201961406E-04   2.231219860206909E-04   2.259285151095023E-04
   2.287703459884547E-04   2.316479226994045E-04   2.345616948695678E-04
   2.375121177817736E-04   2.404996524456051E-04   2.435247656694316E-04
   2.465879301333487E-04   2.496896244630366E-04   2.528303333045439E-04
   2.560105474000176E-04   2.592307636643800E-04   2.624914852629740E-04
   2.657932216901837E-04   2.691364888490426E-04   2.725218091318468E-04
   2.759497115017778E-04   2.794207315755547E-04   2.829354117071267E-04
   2.864943010724141E-04   2.900979557551214E-04   2.937469388336243E-04
   2.974418204689526E-04   3.011831779938797E-04   3.049715960031297E-04
   3.088076664447251E-04   3.126919887124765E-04   3.166251697396407E-04
   3.206078240937563E-04   3.246405740726676E-04   3.287240498017644E-04
   3.328588893324371E-04   3.370457387417743E-04   3.412852522335153E-04
   3.455780922402675E-04   3.499249295270167E-04   3.543264432959323E-04
   3.587833212924954E-04   3.632962599129610E-04   3.678659643131697E-04
   3.724931485187317E-04   3.771785355365930E-04   3.819228574680074E-04
   3.867268556229294E-04   3.915912806358442E-04   3.965168925830572E-04
   4.015044611014561E-04   4.065547655087693E-04   4.116685949253354E-04
   4.168467483974046E-04   4.220900350219925E-04   4.273992740733013E-04
   4.327752951307345E-04   4.382189382085203E-04   4.437310538869643E-04
   4.493125034453562E-04   4.549641589965448E-04   4.606869036232082E-04
   4.664816315158377E-04   4.723492481124556E-04   4.782906702400933E-04
   4.843068262580459E-04   4.903986562029310E-04   4.965671119355720E-04
   5.028131572897261E-04   5.091377682226884E-04   5.155419329677843E-04
   5.220266521887845E-04   5.285929391362608E-04   5.352418198059075E-04
   5.419743330988573E-04   5.487915309840090E-04   5.556944786624017E-04
   5.626842547336549E-04   5.697619513645000E-04   5.769286744594358E-04
   5.841855438335263E-04   5.915336933873753E-04   5.989742712843010E-04
   6.065084401297371E-04   6.141373771528949E-04   6.218622743907050E-04
   6.296843388740769E-04   6.376047928165011E-04   6.456248738050195E-04
   6.537458349936043E-04   6.619689452989630E-04   6.702954895988106E-04
   6.787267689326353E-04   6.872641007049855E-04   6.959088188913210E-04
   7.046622742464456E-04   7.135258345155676E-04   7.225008846480124E-04
   7.315888270136228E-04   7.407910816218834E-04   7.501090863437984E-04
   7.595442971365632E-04   7.690981882710608E-04   7.787722525622179E-04
   7.885680016022626E-04   7.984869659969116E-04   8.085306956045318E-04
   8.187007597783090E-04   8.289987476114608E-04   8.394262681855381E-04
   8.499849508218457E-04   8.606764453360265E-04   8.715024222958513E-04
   8.824645732822449E-04   8.935646111536025E-04   9.048042703134240E-04
   9.161853069813203E-04   9.277094994674261E-04   9.393786484502631E-04
   9.511945772581015E-04   9.631591321538569E-04   9.752741826235737E-04
   9.875416216685354E-04   9.999633661010529E-04   1.012541356843965E-03
   1.025277559233915E-03   1.038173963328439E-03   1.051232584216913E-03
   1.064455462335422E-03   1.077844663785572E-03   1.091402280657330E-03
   1.105130431355916E-03   1.119031260932806E-03   1.133106941420905E-03
   1.147359672173924E-03   1.161791680210042E-03   1.176405220559877E-03
   1.191202576618837E-03   1.206186060503916E-03   1.221358013414954E-03
   1.236720806000460E-03   1.252276838728031E-03   1.268028542259429E-03
   1.283978377830381E-03   1.300128837635143E-03   1.316482445215918E-03
   1.333041755857163E-03   1.349809356984853E-03   1.366787868570782E-03
   1.383979943541927E-03   1.401388268194979E-03   1.419015562616084E-03
   1.436864581105855E-03   1.454938112609749E-03   1.473238981153833E-03
   1.491770046286051E-03   1.510534203523030E-03   1.529534384802514E-03
   1.548773558941487E-03   1.568254732100048E-03   1.587980948251140E-03
   1.607955289656167E-03   1.628180877346613E-03   1.648660871611705E-03
   1.669398472492213E-03   1.690396920280466E-03   1.711659496026652E-03
   1.733189522051489E-03   1.754990362465349E-03   1.777065423693900E-03
   1.799418155010371E-03   1.822052049074507E-03   1.844970642478303E-03
   1.868177516298609E-03   1.891676296656674E-03   1.915470655284738E-03
   1.939564310099744E-03   1.963961025784276E-03   1.988664614374799E-03
   2.013678935857287E-03   2.039007898770364E-03   2.064655460816018E-03
   2.090625629477999E-03   2.116922462647995E-03   2.143550069259694E-03
   2.170512609930801E-03   2.197814297613151E-03   2.225459398250992E-03
   2.253452231447540E-03   2.281797171139938E-03   2.310498646282678E-03
   2.339561141539647E-03   2.368989197984855E-03   2.398787413811992E-03
   2.428960445052910E-03   2.459513006305127E-03   2.490449871468496E-03
   2.521775874491142E-03   2.553495910124768E-03   2.585614934689481E-03
   2.618137966848213E-03   2.651070088390909E-03   2.684416445028560E-03
   2.718182247197231E-03   2.752372770872215E-03   2.786993358392394E-03
   2.822049419295002E-03   2.857546431160881E-03   2.893489940470349E-03
   2.929885563469868E-03   2.966738987049578E-03   3.004055969631893E-03
   3.041842342071262E-03   3.080104008565253E-03   3.118846947577105E-03
   3.158077212769859E-03   3.197800933952268E-03   3.238024318036582E-03
   3.278753650008399E-03   3.319995293908708E-03   3.361755693828274E-03
   3.404041374914545E-03   3.446858944391222E-03   3.490215092590647E-03
   3.534116593999190E-03   3.578570308315761E-03   3.623583181523665E-03
   3.669162246975918E-03   3.715314626494228E-03   3.762047531481796E-03
   3.809368264050103E-03   3.857284218159888E-03   3.905802880776468E-03
   3.954931833039581E-03   4.004678751447983E-03   4.055051409058880E-03
   4.106057676702510E-03   4.157705524211962E-03   4.210003021668487E-03
   4.262958340662469E-03   4.316579755570236E-03   4.370875644846960E-03
   4.425854492335808E-03   4.481524888593550E-03   4.537895532232872E-03
   4.594975231281525E-03   4.652772904558615E-03   4.711297583068184E-03
   4.770558411410311E-03   4.830564649210002E-03   4.891325672563993E-03
   4.952850975505800E-03   5.015150171489184E-03   5.078232994890262E-03
   5.142109302528540E-03   5.206789075207042E-03   5.272282419271838E-03
   5.338599568191190E-03   5.405750884154530E-03   5.473746859691611E-03
   5.542598119311942E-03   5.612315421164919E-03   5.682909658720798E-03
   5.754391862472816E-03   5.826773201660753E-03   5.900064986016111E-03
   5.974278667529309E-03   6.049425842239073E-03   6.125518252044335E-03
   6.202567786538947E-03   6.280586484869428E-03   6.359586537616122E-03
   6.439580288697999E-03   6.520580237301406E-03   6.602599039833122E-03
   6.685649511897903E-03   6.769744630300977E-03   6.854897535075688E-03
   6.941121531536648E-03   7.028430092358737E-03   7.116836859682209E-03
   7.206355647244323E-03   7.297000442537764E-03   7.388785408996208E-03
   7.481724888207414E-03   7.575833402154090E-03   7.671125655483006E-03
   7.767616537802618E-03   7.865321126009591E-03   7.964254686644632E-03
   8.064432678277864E-03   8.165870753924293E-03   8.268584763489614E-03
   8.372590756246790E-03   8.477904983343805E-03   8.584543900342899E-03
   8.692524169791813E-03   8.801862663827334E-03   8.912576466811598E-03
   9.024682878001587E-03   9.138199414252125E-03   9.253143812752950E-03
   9.369534033800185E-03   9.487388263602658E-03   9.606724917123572E-03
   9.727562640957817E-03   9.849920316245592E-03   9.973817061622599E-03
   1.009927223620736E-02   1.022630544262617E-02   1.035493653007597E-02
   1.048518559742588E-02   1.061707299635766E-02   1.075061933454572E-02
   1.088584547887711E-02   1.102277255871200E-02   1.116142196918520E-02
   1.130181537454917E-02   1.144397471155912E-02   1.158792219290071E-02
   1.173368031066076E-02   1.188127183984171E-02   1.203071984192026E-02
   1.218204766845079E-02   1.233527896471410E-02   1.249043767341197E-02
   1.264754803840830E-02   1.280663460851726E-02   1.296772224133910E-02
   1.313083610714419E-02   1.329600169280592E-02   1.346324480578307E-02
   1.363259157815231E-02   1.380406847069135E-02   1.397770227701355E-02
   1.415352012775438E-02   1.433154949481073E-02   1.451181819563342E-02
   1.469435439757368E-02   1.487918662228447E-02   1.506634375017693E-02
   1.525585502493307E-02   1.544775005807514E-02   1.564205883359246E-02
   1.583881171262656E-02   1.603803943821507E-02   1.623977314009544E-02
   1.644404433956903E-02   1.665088495442633E-02   1.686032730393426E-02
   1.707240411388604E-02   1.728714852171468E-02   1.750459408167082E-02
   1.772477477006558E-02   1.794772499057951E-02   1.817347957963815E-02
   1.840207381185534E-02   1.863354340554494E-02   1.886792452830189E-02
   1.910525380265348E-02   1.934556831178168E-02   1.958890560531746E-02
   1.983530370520802E-02   2.008480111165772E-02   2.033743680914400E-02
   2.059325027250853E-02   2.085228147312544E-02   2.111457088514682E-02
   2.138015949182691E-02   2.164908879192590E-02   2.192140080619403E-02
   2.219713808393757E-02   2.247634370966715E-02   2.275906130982983E-02
   2.304533505962585E-02   2.333520968991104E-02   2.362873049418613E-02
   2.392594333567397E-02   2.422689465448569E-02   2.453163147487719E-02
   2.484020141259664E-02   2.515265268232459E-02   2.546903410520763E-02
   2.578939511648672E-02   2.611378577322173E-02   2.644225676211271E-02
   2.677485940741996E-02   2.711164567898350E-02   2.745266820034342E-02
   2.779798025696256E-02   2.814763580455228E-02   2.850168947750327E-02
   2.886019659742226E-02   2.922321318177610E-02   2.959079595264470E-02
   2.996300234558385E-02   3.033989051859969E-02   3.072151936123606E-02
   3.110794850377600E-02   3.149923832655931E-02   3.189544996941683E-02
   3.229664534122387E-02   3.270288712957352E-02   3.311423881057167E-02
   3.353076465875545E-02   3.395252975713602E-02   3.437960000736812E-02
   3.481204214004719E-02   3.524992372513627E-02   3.569331318252397E-02
   3.614227979271503E-02   3.659689370765576E-02   3.705722596169526E-02
   3.752334848268475E-02   3.799533410321655E-02   3.847325657200407E-02
   3.895719056540543E-02   3.944721169909164E-02   3.994339653986179E-02
   4.044582261760678E-02   4.095456843742346E-02   4.146971349188119E-02
   4.199133827344281E-02   4.251952428704167E-02   4.305435406281706E-02
   4.359591116900952E-02   4.414428022501872E-02   4.469954691462531E-02
   4.526179799937921E-02   4.583112133215639E-02   4.640760587088586E-02
   4.699134169244967E-02   4.758242000675754E-02   4.818093317099862E-02
   4.878697470407258E-02   4.940063930120192E-02   5.002202284872845E-02
   5.065122243909570E-02   5.128833638601972E-02   5.193346423985108E-02
   5.258670680312928E-02   5.324816614633395E-02   5.391794562383331E-02
   5.459614989003323E-02   5.528288491573028E-02   5.597825800466922E-02
   5.668237781031004E-02   5.739535435280501E-02   5.811729903618926E-02
   5.884832466578859E-02   5.958854546584470E-02   6.033807709736367E-02
   6.109703667618799E-02   6.186554279129573E-02   6.264371552333116E-02
   6.343167646336662E-02   6.422954873190222E-02   6.503745699810334E-02
   6.585552749928003E-02   6.668388806061271E-02   6.752266811512415E-02
   6.837199872390454E-02   6.923201259658956E-02   7.010284411209630E-02
   7.098462933962103E-02   7.187750605989929E-02   7.278161378673534E-02
   7.369709378880103E-02   7.462408911170901E-02   7.556274460036470E-02
   7.651320692159766E-02   7.747562458707946E-02   7.845014797652851E-02
   7.943692936120679E-02   8.043612292771363E-02   8.144788480207631E-02
   8.247237307414636E-02   8.350974782230071E-02   8.456017113845404E-02
   8.562380715338694E-02   8.670082206239038E-02   8.779138415123526E-02
   8.889566382246687E-02   9.001383362203023E-02   9.114606826623177E-02
   9.229254466903786E-02   9.345344196971912E-02   9.462894156084081E-02
   9.581922711660532E-02   9.702448462155266E-02   9.824490239961982E-02
   9.948067114356773E-02   1.007319839447770E-01   1.019990363234182E-01
   1.032820262590039E-01   1.045811542213212E-01   1.058966232017576E-01
   1.072286387450179E-01   1.085774089812402E-01   1.099431446585185E-01
   1.113260591758305E-01   1.127263686163834E-01   1.141442917813764E-01
   1.155800502241884E-01   1.170338682849976E-01   1.185059731258333E-01
   1.199965947660722E-01   1.215059661183786E-01   1.230343230250965E-01
   1.245819042951025E-01   1.261489517411183E-01   1.277357102174957E-01
   1.293424276584751E-01   1.309693551169252E-01   1.326167468035717E-01
   1.342848601267169E-01   1.359739557324616E-01   1.376842975454309E-01
   1.394161528100123E-01   1.411697921321148E-01   1.429454895214500E-01
   1.447435224343477E-01   1.465641718171090E-01   1.484077221499036E-01
   1.502744614912223E-01   1.521646815228844E-01   1.540786775956160E-01
   1.560167487751976E-01   1.579791978891937E-01   1.599663315742713E-01
   1.619784603241113E-01   1.640158985379246E-01   1.660789645695776E-01
   1.681679807773347E-01   1.702832735742289E-01   1.724251734790628E-01
   1.745940151680545E-01   1.767901375271309E-01   1.790138837048779E-01
   1.812656011661606E-01   1.835456417464130E-01   1.858543617066147E-01
   1.881921217889571E-01   1.905592872732086E-01   1.929562280337926E-01
   1.953833185975792E-01   1.978409382024070E-01   2.003294708563398E-01
   2.028493053976671E-01   2.054008355556632E-01   2.079844600121057E-01
   2.106005824635729E-01   2.132496116845206E-01   2.159319615911532E-01
   2.186480513061019E-01   2.213983052239097E-01   2.241831530773471E-01
   2.270030300045573E-01   2.298583766170467E-01   2.327496390685333E-01
   2.356772691246568E-01   2.386417242335702E-01   2.416434675974159E-01
   2.446829682447006E-01   2.477607011035854E-01   2.508771470760903E-01
   2.540327931132398E-01   2.572281322911465E-01   2.604636638880584E-01
   2.637398934623707E-01   2.670573329316190E-01   2.704165006524707E-01
   2.738179215017156E-01   2.772621269582819E-01   2.807496551862802E-01
   2.842810511190904E-01   2.878568665445128E-01   2.914776601909816E-01
   2.951439978148712E-01   2.988564522888950E-01   3.026156036916166E-01
   3.064220393980917E-01   3.102763541716427E-01   3.141791502567952E-01
   3.181310374733783E-01   3.221326333118087E-01   3.261845630295785E-01
   3.302874597489489E-01   3.344419645558800E-01   3.386487266002011E-01
   3.429084031970390E-01   3.472216599295296E-01   3.515891707528117E-01
   3.560116180993375E-01   3.604896929855032E-01   3.650240951196192E-01
   3.696155330112457E-01   3.742647240818930E-01   3.789723947771258E-01
   3.837392806800685E-01   3.885661266263403E-01   3.934536868204422E-01
   3.984027249535967E-01   4.034140143230819E-01   4.084883379530580E-01
   4.136264887169145E-01   4.188292694611635E-01   4.240974931308797E-01
   4.294319828967307E-01   4.348335722835963E-01   4.403031053008061E-01
   4.458414365740236E-01   4.514494314787764E-01   4.571279662756789E-01
   4.628779282473467E-01   4.687002158370349E-01   4.745957387890264E-01
   4.805654182907754E-01   4.866101871168502E-01   4.927309897746791E-01
   4.989287826521284E-01   5.052045341669463E-01   5.115592249180737E-01
   5.179938478388698E-01   5.245094083522583E-01   5.311069245278237E-01
   5.377874272408928E-01   5.445519603336044E-01   5.514015807780177E-01
   5.583373588412638E-01   5.653603782527741E-01   5.724717363736219E-01
   5.796725443679799E-01   5.869639273767483E-01   5.943470246933579E-01
   6.018229899417831E-01   6.093929912568061E-01   6.170582114665316E-01
   6.248198482772134E-01   6.326791144603956E-01   6.406372380424067E-01
   6.486954624962495E-01   6.568550469358877E-01   6.651172663129913E-01
   6.734834116161492E-01   6.819547900725836E-01   6.905327253524158E-01
   6.992185577754829E-01   7.080136445207736E-01   7.169193598384869E-01
   7.259370952647574E-01   7.350682598390947E-01   7.443142803245387E-01
   7.536766014306026E-01   7.631566860390082E-01   7.727560154322605E-01
   7.824760895251097E-01   7.923184270989059E-01   8.022845660389204E-01
   8.123760635746408E-01   8.225944965230850E-01   8.329414615351941E-01
   8.434185753452992E-01   8.540274750237502E-01   8.647698182327078E-01
   8.756472834851505E-01   8.866615704071575E-01   8.978144000034661E-01
   9.091075149263927E-01   9.205426797481219E-01   9.321216812364186E-01
   9.438463286338267E-01   9.557184539403522E-01   9.677399121997302E-01
   9.799125817892734E-01   9.922383647133670E-01   1.004719186900674E+00
   1.017356998505048E+00   1.030153774210269E+00   1.043111513538575E+00
   1.056232241163097E+00   1.069518007224224E+00   1.082970887649929E+00
   1.096592984480151E+00   1.110386426195235E+00   1.124353368048509E+00
   1.138495992403058E+00   1.152816509072705E+00   1.167317155667319E+00
   1.182000197942432E+00   1.196867930153271E+00   1.211922675413244E+00
   1.227166786056925E+00   1.242602644007617E+00   1.258232661149532E+00
   1.274059279704644E+00   1.290084972614306E+00   1.306312243925635E+00
   1.322743629182790E+00   1.339381695823150E+00   1.356229043578473E+00
   1.373288304881127E+00   1.390562145275393E+00   1.408053263833979E+00
   1.425764393579749E+00   1.443698301912753E+00   1.461857791042660E+00
   1.480245698426588E+00   1.498864897212478E+00   1.517718296688025E+00
   1.536808842735248E+00   1.556139518290814E+00   1.575713343812100E+00
   1.595533377749170E+00   1.615602717022654E+00   1.635924497507640E+00
   1.656501894523678E+00   1.677338123330912E+00   1.698436439632487E+00
   1.719800140083254E+00   1.741432562804866E+00   1.763337087907392E+00
   1.785517138017437E+00   1.807976178812960E+00   1.830717719564782E+00
   1.853745313684907E+00   1.877062559281773E+00   1.900673099722436E+00
   1.924580624201881E+00   1.948788868319450E+00   1.973301614662533E+00
   1.998122693397623E+00   2.023255982868765E+00   2.048705410203577E+00
   2.074474951926860E+00   2.100568634581931E+00   2.126990535359798E+00
   2.153744782736208E+00   2.180835557116748E+00   2.208267091490036E+00
   2.236043672089119E+00   2.264169639061237E+00   2.292649387145943E+00
   2.321487366361822E+00   2.350688082701801E+00   2.380256098837211E+00
   2.410196034830737E+00   2.440512568858282E+00   2.471210437939974E+00
   2.502294438680314E+00   2.533769428017651E+00   2.565640323983116E+00
   2.597912106469033E+00   2.630589818007079E+00   2.663678564556170E+00
   2.697183516300265E+00   2.731109908456248E+00   2.765463042091909E+00
   2.800248284954276E+00   2.835471072308321E+00   2.871136907786219E+00
   2.907251364247338E+00   2.943820084648964E+00   2.980848782928065E+00
   3.018343244894088E+00   3.056309329132988E+00   3.094752967922679E+00
   3.133680168159926E+00   3.173097012298971E+00   3.213009659301908E+00
   3.253424345601025E+00   3.294347386073292E+00   3.335785175027028E+00
   3.377744187201069E+00   3.420230978776441E+00   3.463252188400754E+00
   3.506814538225553E+00   3.550924834956613E+00   3.595589970917547E+00
   3.640816925126728E+00   3.686612764387754E+00   3.732984644393693E+00
   3.779939810845129E+00   3.827485600582357E+00   3.875629442731761E+00
   3.924378859866616E+00   3.973741469182543E+00   4.023724983687662E+00
   4.074337213407813E+00   4.125586066606871E+00   4.177479551022399E+00
   4.230025775116930E+00   4.283232949344870E+00   4.337109387435450E+00
   4.391663507691741E+00   4.446903834306012E+00   4.502838998691695E+00
   4.559477740832015E+00   4.616828910645667E+00   4.674901469369629E+00
   4.733704490959332E+00   4.793247163506552E+00   4.853538790675000E+00
   4.914588793154090E+00   4.976406710130929E+00   5.039002200780796E+00
   5.102385045776471E+00   5.166565148816425E+00   5.231552538172339E+00
   5.297357368256029E+00   5.363989921206056E+00   5.431460608494403E+00
   5.499779972553211E+00   5.568958688422119E+00   5.639007565416238E+00
   5.709937548815091E+00   5.781759721572917E+00   5.854485306050310E+00
   5.928125665767816E+00   6.002692307181473E+00   6.078196881480689E+00
   6.154651186408836E+00   6.232067168106584E+00   6.310456922978585E+00
   6.389832699583539E+00   6.470206900548007E+00   6.551592084504436E+00
   6.634000968053374E+00   6.717446427750549E+00   6.801941502118825E+00
   6.887499393685450E+00   6.974133471045080E+00   7.061857270948532E+00
   7.150684500418029E+00   7.240629038888910E+00   7.331704940378279E+00
   7.423926435681065E+00   7.517307934593508E+00   7.611864028164813E+00
   7.707609490976991E+00   7.804559283453374E+00   7.902728554196307E+00
   8.002132642354049E+00   8.102787080017620E+00   8.204707594647710E+00
   8.307910111532054E+00   8.412410756273916E+00   8.518225857311613E+00
   8.625371948469981E+00   8.733865771543766E+00   8.843724278913529E+00
   8.954964636194584E+00   9.067604224919044E+00   9.181660645251835E+00
   9.297151718740693E+00   9.414095491100793E+00   9.532510235034518E+00
   9.652414453086495E+00   9.773826880534754E+00   9.896766488318121E+00
   1.002125248600040E+01   1.014730432477203E+01   1.027494170048923E+01
   1.040418455675167E+01   1.053505308801860E+01   1.066756774276425E+01
   1.080174922667305E+01   1.093761850587484E+01   1.107519681022092E+01
   1.121450563660129E+01   1.135556675230344E+01   1.149840219841374E+01
   1.164303429326120E+01   1.178948563590492E+01   1.193777910966517E+01
   1.208793788569888E+01   1.223998542662036E+01   1.239394549016717E+01
   1.254984213291249E+01   1.270769971402395E+01   1.286754289906973E+01
   1.302939666387272E+01   1.319328629841294E+01   1.335923741077923E+01
   1.352727593117056E+01   1.369742811594757E+01   1.386972055173536E+01
   1.404418015957749E+01   1.422083419914267E+01   1.439971027298399E+01
   1.458083633085189E+01   1.476424067406145E+01   1.494995195991438E+01
   1.513799920617696E+01   1.532841179561404E+01   1.552121948058005E+01
   1.571645238766809E+01   1.591414102241705E+01   1.611431627407833E+01
   1.631700942044230E+01   1.652225213272540E+01   1.673007648051904E+01
   1.694051493680035E+01   1.715360038300627E+01   1.736936611417134E+01
   1.758784584412997E+01   1.780907371078452E+01   1.803308428143920E+01
   1.825991255820145E+01   1.848959398345102E+01   1.872216444537785E+01
   1.895766028358985E+01   1.919611829479078E+01   1.943757573853007E+01
   1.968207034302461E+01   1.992964031105368E+01   2.018032432592857E+01
   2.043416155753653E+01   2.069119166846148E+01   2.095145482018123E+01
   2.121499167934265E+01   2.148184342411625E+01   2.175205175062997E+01
   2.202565887948463E+01   2.230270756235079E+01   2.258324108864874E+01
   2.286730329231280E+01   2.315493855864013E+01   2.344619183122634E+01