<UPF version="2.0.1">
  <PP_INFO>
    Generated using "atomic" code by A. Dal Corso  v.7.2
    Author: ADC
    Generation date: 22Sep2023
    Pseudopotential type: PAW
    Element: La
    Functional:  SLA  PW   PSX  PSC
    Suggested minimum cutoff for wavefunctions: 117. Ry
    Suggested minimum cutoff for charge density:1044. Ry
    The Pseudo was generated with a Scalar-Relativistic Calculation
    Local Potential by smoothing AE potential with Bessel fncs, cutoff radius:   2.0000
    Valence configuration: 
    nl pn  l   occ       Rcut    Rcut US       E pseu
    5S  1  0  2.00      0.900      1.600    -2.862562
    6S  2  0  2.00      0.900      1.600    -0.272299
    5P  2  1  6.00      1.000      2.100    -1.646267
    4D  3  2 10.00      0.650      1.000    -7.626841
    5D  4  2  1.00      0.750      1.500    -0.228010
    4F  4  3  0.00      1.000      1.500    -0.322462
    Generation configuration:
    5S  1  0  2.00      0.900      1.600    -2.862610
    6S  2  0  2.00      0.900      1.600    -0.272307
    5P  2  1  6.00      1.000      2.100    -1.646304
    6P  3  1  0.00      1.000      2.100     0.300000
    4D  3  2 10.00      0.650      1.000    -7.626975
    5D  4  2  1.00      0.750      1.500    -0.228029
    4F  4  3  0.00      1.000      1.500    -0.322553
    4F  4  3  0.00      1.000      1.500     1.000000
    Pseudization used: troullier-martins
    <PP_INPUTFILE>
@input
title='La',
zed=57.0,
rel=1,
config='[Xe] 4f0.0 5d1.0 6s2.0 6p0.0',
iswitch=3,
dft='PBESOL'
/
@inputp
lpaw=.true.,
pseudotype=3,
file_pseudopw='La.pbesol-spdfn-kjpaw_psl.1.0.0.UPF',
author='ADC',
lloc=-1,
rcloc=2.0,
which_augfun='PSQ',
rmatch_augfun_nc=.true.,
nlcc=.true.,
new_core_ps=.true.,
rcore=1.3,
tm=.true.
/
8
5S  1  0  2.00  0.00  0.90  1.60  0.0
6S  2  0  2.00  0.00  0.90  1.60  0.0
5P  2  1  6.00  0.00  1.00  2.10  0.0
6P  3  1  0.00  0.30  1.00  2.10  0.0
4D  3  2 10.00  0.00  0.65  1.00  0.0
5D  4  2  1.00  0.00  0.75  1.50  0.0
4F  4  3  0.00  0.00  1.00  1.50  0.0
4F  4  3  0.00  1.00  1.00  1.50  0.0
    </PP_INPUTFILE>
  </PP_INFO>
    <!-- END OF HUMAN READABLE SECTION -->
  <PP_HEADER generated="Generated using 'atomic' code by A. Dal Corso  v.7.2" author="ADC" date="22Sep2023" comment="" element="La" pseudo_type="PAW" relativistic="scalar" is_ultrasoft="true" is_paw="true" is_coulomb="false" has_so="false" has_wfc="true" has_gipaw="false" paw_as_gipaw="false" core_correction="true" functional=" SLA  PW   PSX  PSC" z_valence="21.000000000000000" total_psenergy="-728.46918014767425" wfc_cutoff="116.73524569562682" rho_cutoff="1043.5610697071866" l_max="3" l_max_rho="6" l_local="-1" mesh_size="1253" number_of_wfc="6" number_of_proj="8"/>
  <PP_MESH mesh="1253" dx="1.2500000000000001E-002" xmin="-7.0000000000000000" rmax="100.00000000000000" zmesh="57.000000000000000">
    <PP_R>
   1.599792922025467E-05   1.619915839770215E-05   1.640291872660670E-05
   1.660924204493428E-05   1.681816059112316E-05   1.702970700912121E-05
   1.724391435348664E-05   1.746081609455283E-05   1.768044612365808E-05
   1.790283875844131E-05   1.812802874820416E-05   1.835605127934068E-05
   1.858694198083526E-05   1.882073692982977E-05   1.905747265726067E-05
   1.929718615356699E-05   1.953991487447023E-05   1.978569674682688E-05
   2.003457017455452E-05   2.028657404463259E-05   2.054174773317850E-05
   2.080013111160023E-05   2.106176455282633E-05   2.132668893761429E-05
   2.159494566093826E-05   2.186657663845701E-05   2.214162431306341E-05
   2.242013166151622E-05   2.270214220115523E-05   2.298769999670105E-05
   2.327684966714020E-05   2.356963639269696E-05   2.386610592189287E-05
   2.416630457869504E-05   2.447027926975436E-05   2.477807749173477E-05
   2.508974733873464E-05   2.540533750980168E-05   2.572489731654216E-05
   2.604847669082609E-05   2.637612619258899E-05   2.670789701773213E-05
   2.704384100612194E-05   2.738401064969004E-05   2.772845910063539E-05
   2.807724017972920E-05   2.843040838472468E-05   2.878801889887239E-05
   2.915012759954270E-05   2.951679106695686E-05   2.988806659302761E-05
   3.026401219031127E-05   3.064468660107228E-05   3.103014930646177E-05
   3.142046053581175E-05   3.181568127604588E-05   3.221587328120890E-05
   3.262109908211581E-05   3.303142199612241E-05   3.344690613701889E-05
   3.386761642504753E-05   3.429361859704679E-05   3.472497921672275E-05
   3.516176568504981E-05   3.560404625080235E-05   3.605189002121858E-05
   3.650536697279876E-05   3.696454796223920E-05   3.742950473750365E-05
   3.790030994903429E-05   3.837703716110324E-05   3.885976086330731E-05
   3.934855648220708E-05   3.984350039311240E-05   4.034466993201642E-05
   4.085214340767919E-05   4.136600011386374E-05   4.188632034172585E-05
   4.241318539235971E-05   4.294667758950145E-05   4.348688029239225E-05
   4.403387790880348E-05   4.458775590822559E-05   4.514860083522280E-05
   4.571650032295611E-05   4.629154310687582E-05   4.687381903858685E-05
   4.746341909988819E-05   4.806043541698892E-05   4.866496127490331E-05
   4.927709113202654E-05   4.989692063489417E-05   5.052454663312707E-05
   5.116006719456434E-05   5.180358162058678E-05   5.245519046163264E-05
   5.311499553290904E-05   5.378309993030076E-05   5.445960804647910E-05
   5.514462558721369E-05   5.583825958788889E-05   5.654061843022853E-05
   5.725181185923067E-05   5.797195100031547E-05   5.870114837668898E-05
   5.943951792692477E-05   6.018717502276727E-05   6.094423648715883E-05
   6.171082061249347E-05   6.248704717910052E-05   6.327303747396019E-05
   6.406891430965515E-05   6.487480204356022E-05   6.569082659727334E-05
   6.651711547629137E-05   6.735379778993270E-05   6.820100427151106E-05
   6.905886729876287E-05   6.992752091453141E-05   7.080710084771154E-05
   7.169774453445731E-05   7.259959113965678E-05   7.351278157867683E-05
   7.443745853938141E-05   7.537376650442701E-05   7.632185177383806E-05
   7.728186248786678E-05   7.825394865014039E-05   7.923826215109940E-05
   8.023495679173111E-05   8.124418830760081E-05   8.226611439318615E-05
   8.330089472651715E-05   8.434869099412607E-05   8.540966691631164E-05
   8.648398827272020E-05   8.757182292824942E-05   8.867334085927745E-05
   8.978871418022195E-05   9.091811717043377E-05   9.206172630142780E-05
   9.321972026445747E-05   9.439227999843545E-05   9.557958871820570E-05
   9.678183194317142E-05   9.799919752628245E-05   9.923187568338786E-05
   1.004800590229576E-04   1.017439425761779E-04   1.030237238274255E-04
   1.043196027451245E-04   1.056317818129923E-04   1.069604660616779E-04
   1.083058631007983E-04   1.096681831513783E-04   1.110476390786973E-04
   1.124444464255506E-04   1.138588234459278E-04   1.152909911391160E-04
   1.167411732842311E-04   1.182095964751836E-04   1.196964901560847E-04
   1.212020866570971E-04   1.227266212307370E-04   1.242703320886338E-04
   1.258334604387491E-04   1.274162505230683E-04   1.290189496557620E-04
   1.306418082618305E-04   1.322850799162329E-04   1.339490213835081E-04
   1.356338926578960E-04   1.373399570039609E-04   1.390674809977280E-04
   1.408167345683362E-04   1.425879910402142E-04   1.443815271757900E-04
   1.461976232187335E-04   1.480365629377462E-04   1.498986336709008E-04
   1.517841263705374E-04   1.536933356487268E-04   1.556265598233028E-04
   1.575841009644757E-04   1.595662649420320E-04   1.615733614731253E-04
   1.636057041706724E-04   1.656636105923546E-04   1.677474022902369E-04
   1.698574048610122E-04   1.719939479968742E-04   1.741573655370353E-04
   1.763479955198875E-04   1.785661802358223E-04   1.808122662807149E-04
   1.830866046100790E-04   1.853895505939062E-04   1.877214640721917E-04
   1.900827094111606E-04   1.924736555602016E-04   1.948946761095141E-04
   1.973461493484853E-04   1.998284583247961E-04   2.023419909042741E-04
   2.048871398314992E-04   2.074643027911687E-04   2.100738824702390E-04
   2.127162866208438E-04   2.153919281240077E-04   2.181012250541595E-04
   2.208446007444561E-04   2.236224838529310E-04   2.264353084294715E-04
   2.292835139836400E-04   2.321675455533498E-04   2.350878537744005E-04
   2.380448949508936E-04   2.410391311265288E-04   2.440710301568003E-04
   2.471410657821006E-04   2.502497177017413E-04   2.533974716489102E-04
   2.565848194665653E-04   2.598122591842877E-04   2.630802950961003E-04
   2.663894378392622E-04   2.697402044740602E-04   2.731331185645981E-04
   2.765687102606050E-04   2.800475163802741E-04   2.835700804941381E-04
   2.871369530100075E-04   2.907486912589694E-04   2.944058595824729E-04
   2.981090294205103E-04   3.018587794009015E-04   3.056556954297108E-04
   3.095003707827923E-04   3.133934061984918E-04   3.173354099715142E-04
   3.213269980479680E-04   3.253687941216120E-04   3.294614297313054E-04
   3.336055443596887E-04   3.378017855331040E-04   3.420508089227719E-04
   3.463532784472418E-04   3.507098663761303E-04   3.551212534351647E-04
   3.595881289125484E-04   3.641111907666621E-04   3.686911457351233E-04
   3.733287094452136E-04   3.780246065256977E-04   3.827795707200487E-04
   3.875943450010955E-04   3.924696816871158E-04   3.974063425593855E-04
   4.024050989812093E-04   4.074667320184487E-04   4.125920325615633E-04
   4.177818014491909E-04   4.230368495932785E-04   4.283579981057901E-04
   4.337460784270070E-04   4.392019324554412E-04   4.447264126793850E-04
   4.503203823101129E-04   4.559847154167605E-04   4.617202970629003E-04
   4.675280234448331E-04   4.734088020316226E-04   4.793635517068872E-04
   4.853932029123786E-04   4.914986977933653E-04   4.976809903458439E-04
   5.039410465656041E-04   5.102798445991662E-04   5.166983748966191E-04
   5.231976403663809E-04   5.297786565319036E-04   5.364424516903526E-04
   5.431900670732788E-04   5.500225570093138E-04   5.569409890889115E-04
   5.639464443311591E-04   5.710400173526917E-04   5.782228165387257E-04
   5.854959642162470E-04   5.928605968293782E-04   6.003178651169480E-04
   6.078689342922987E-04   6.155149842253516E-04   6.232572096269643E-04
   6.310968202356082E-04   6.390350410063901E-04   6.470731123024564E-04
   6.552122900888004E-04   6.634538461285102E-04   6.717990681814852E-04
   6.802492602056493E-04   6.888057425606985E-04   6.974698522144091E-04
   7.062429429515412E-04   7.151263855853724E-04   7.241215681718868E-04
   7.332298962266652E-04   7.424527929444967E-04   7.517916994217576E-04
   7.612480748815855E-04   7.708233969018845E-04   7.805191616462021E-04
   7.903368840975057E-04   8.002780982949018E-04   8.103443575733355E-04
   8.205372348062979E-04   8.308583226515953E-04   8.413092338002012E-04
   8.518916012282452E-04   8.626070784521681E-04   8.734573397870867E-04
   8.844440806084101E-04   8.955690176167441E-04   9.068338891061300E-04
   9.182404552356558E-04   9.297904983044877E-04   9.414858230303532E-04
   9.533282568315349E-04   9.653196501124080E-04   9.774618765525684E-04
   9.897568333996026E-04   1.002206441765532E-03   1.014812646926991E-03
   1.027577418629185E-03   1.040502751393662E-03   1.053590664829964E-03
   1.066843203951193E-03   1.080262439493548E-03   1.093850468239885E-03
   1.107609413347340E-03   1.121541424679080E-03   1.135648679140220E-03
   1.149933381017971E-03   1.164397762326064E-03   1.179044083153504E-03
   1.193874632017723E-03   1.208891726222151E-03   1.224097712218310E-03
   1.239494965972449E-03   1.255085893336793E-03   1.270872930425464E-03
   1.286858543995125E-03   1.303045231830419E-03   1.319435523134253E-03
   1.336031978922988E-03   1.352837192426609E-03   1.369853789493915E-03
   1.387084429002819E-03   1.404531803275800E-03   1.422198638500583E-03
   1.440087695156119E-03   1.458201768443905E-03   1.476543688724744E-03
   1.495116321960998E-03   1.513922570164395E-03   1.532965371849481E-03
   1.552247702492760E-03   1.571772574997626E-03   1.591543040165132E-03
   1.611562187170682E-03   1.631833144046728E-03   1.652359078171521E-03
   1.673143196764029E-03   1.694188747385068E-03   1.715499018444738E-03
   1.737077339716251E-03   1.758927082856206E-03   1.781051661931423E-03
   1.803454533952394E-03   1.826139199413450E-03   1.849109202839725E-03
   1.872368133340986E-03   1.895919625172444E-03   1.919767358302614E-03
   1.943915058988315E-03   1.968366500356907E-03   1.993125502995856E-03
   2.018195935549692E-03   2.043581715324509E-03   2.069286808900045E-03
   2.095315232749467E-03   2.121671053866959E-03   2.148358390403192E-03
   2.175381412308794E-03   2.202744341985918E-03   2.230451454947993E-03
   2.258507080487793E-03   2.286915602353889E-03   2.315681459435619E-03
   2.344809146456676E-03   2.374303214677416E-03   2.404168272606008E-03
   2.434408986718514E-03   2.465030082188038E-03   2.496036343623047E-03
   2.527432615814970E-03   2.559223804495218E-03   2.591414877101699E-03
   2.624010863555002E-03   2.657016857044328E-03   2.690438014823307E-03
   2.724279559015842E-03   2.758546777432064E-03   2.793245024394568E-03
   2.828379721575033E-03   2.863956358841375E-03   2.899980495115554E-03
   2.936457759242150E-03   2.973393850867898E-03   3.010794541332260E-03
   3.048665674569213E-03   3.087013168020378E-03   3.125843013559623E-03
   3.165161278429314E-03   3.204974106188330E-03   3.245287717672005E-03
   3.286108411964159E-03   3.327442567381322E-03   3.369296642469372E-03
   3.411677177012696E-03   3.454590793056036E-03   3.498044195939214E-03
   3.542044175344833E-03   3.586597606359195E-03   3.631711450546540E-03
   3.677392757036804E-03   3.723648663627072E-03   3.770486397896853E-03
   3.817913278337421E-03   3.865936715495333E-03   3.914564213130347E-03
   3.963803369387910E-03   4.013661877986360E-03   4.064147529419104E-03
   4.115268212171891E-03   4.167031913955406E-03   4.219446722953372E-03
   4.272520829086330E-03   4.326262525291344E-03   4.380680208817785E-03
   4.435782382539412E-03   4.491577656282984E-03   4.548074748173537E-03
   4.605282485996621E-03   4.663209808577662E-03   4.721865767178664E-03
   4.781259526912503E-03   4.841400368174969E-03   4.902297688094867E-03
   4.963961002002334E-03   5.026399944915615E-03   5.089624273046585E-03
   5.153643865325139E-03   5.218468724942820E-03   5.284108980915829E-03
   5.350574889667707E-03   5.417876836631928E-03   5.486025337874630E-03
   5.555031041737778E-03   5.624904730502998E-03   5.695657322076312E-03
   5.767299871694108E-03   5.839843573650520E-03   5.913299763046570E-03
   5.987679917561297E-03   6.062995659245167E-03   6.139258756336060E-03
   6.216481125098049E-03   6.294674831683365E-03   6.373852094017745E-03
   6.454025283709515E-03   6.535206927982685E-03   6.617409711634334E-03
   6.700646479016651E-03   6.784930236043886E-03   6.870274152224544E-03
   6.956691562719174E-03   7.044195970423979E-03   7.132801048080690E-03
   7.222520640412961E-03   7.313368766289621E-03   7.405359620915185E-03
   7.498507578047839E-03   7.592827192245395E-03   7.688333201139467E-03
   7.785040527738244E-03   7.882964282758274E-03   7.982119766985504E-03
   8.082522473666072E-03   8.184188090927171E-03   8.287132504228328E-03
   8.391371798843581E-03   8.496922262374784E-03   8.603800387296603E-03
   8.712022873533506E-03   8.821606631069139E-03   8.932568782588584E-03
   9.044926666153759E-03   9.158697837912568E-03   9.273900074842065E-03
   9.390551377526144E-03   9.508669972968196E-03   9.628274317439064E-03
   9.749383099360907E-03   9.872015242227300E-03   9.996189907560052E-03
   1.012192649790328E-02   1.024924465985502E-02   1.037816428713711E-02
   1.050870552370361E-02   1.064088876688831E-02   1.077473467059189E-02
   1.091026414850913E-02   1.104749837739667E-02   1.118645880038200E-02
   1.132716713031390E-02   1.146964535315522E-02   1.161391573141814E-02
   1.176000080764280E-02   1.190792340791956E-02   1.205770664545565E-02
   1.220937392418670E-02   1.236294894243357E-02   1.251845569660531E-02
   1.267591848494864E-02   1.283536191134459E-02   1.299681088915295E-02
   1.316029064510495E-02   1.332582672324507E-02   1.349344498892230E-02
   1.366317163283166E-02   1.383503317510661E-02   1.400905646946276E-02
   1.418526870739391E-02   1.436369742242075E-02   1.454437049439299E-02
   1.472731615384575E-02   1.491256298641050E-02   1.510013993728172E-02
   1.529007631573962E-02   1.548240179972974E-02   1.567714644050028E-02
   1.587434066729754E-02   1.607401529212067E-02   1.627620151453603E-02
   1.648093092655221E-02   1.668823551755639E-02   1.689814767931267E-02
   1.711070021102339E-02   1.732592632445407E-02   1.754385964912281E-02
   1.776453423755499E-02   1.798798457060402E-02   1.821424556283904E-02
   1.844335256800043E-02   1.867534138452385E-02   1.891024826113389E-02
   1.914810990250793E-02   1.938896347501137E-02   1.963284661250493E-02
   1.987979742222502E-02   2.012985449073811E-02   2.038305688996989E-02
   2.063944418331037E-02   2.089905643179577E-02   2.116193420036808E-02
   2.142811856421351E-02   2.169765111518044E-02   2.197057396827834E-02
   2.224692976825825E-02   2.252676169627616E-02   2.281011347664020E-02
   2.309702938364249E-02   2.338755424847725E-02   2.368173346624568E-02
   2.397961300304906E-02   2.428123940317108E-02   2.458665979635042E-02
   2.489592190514488E-02   2.520907405238816E-02   2.552616516874037E-02
   2.584724480033361E-02   2.617236311651352E-02   2.650157091767848E-02
   2.683491964321719E-02   2.717246137954620E-02   2.751424886824858E-02
   2.786033551431481E-02   2.821077539448744E-02   2.856562326571072E-02
   2.892493457368646E-02   2.928876546153760E-02   2.965717277858056E-02
   3.003021408920816E-02   3.040794768188415E-02   3.079043257825085E-02
   3.117772854235156E-02   3.156989608996858E-02   3.196699649807912E-02
   3.236909181442985E-02   3.277624486723197E-02   3.318851927497842E-02
   3.360597945638415E-02   3.402869064045184E-02   3.445671887666401E-02
   3.489013104530337E-02   3.532899486790311E-02   3.577337891782835E-02
   3.622335263099101E-02   3.667898631669925E-02   3.714035116864342E-02
   3.760751927602034E-02   3.808056363479725E-02   3.855955815911759E-02
   3.904457769285034E-02   3.953569802128436E-02   4.003299588297025E-02
   4.053654898171061E-02   4.104643599870161E-02   4.156273660482705E-02
   4.208553147310699E-02   4.261490229130331E-02   4.315093177468335E-02
   4.369370367894442E-02   4.424330281330087E-02   4.479981505373556E-02
   4.536332735641837E-02   4.593392777129301E-02   4.651170545583522E-02
   4.709675068898372E-02   4.768915488524641E-02   4.828901060898434E-02
   4.889641158887459E-02   4.951145273255613E-02   5.013423014145905E-02
   5.076484112582037E-02   5.140338421988956E-02   5.204995919732401E-02
   5.270466708677951E-02   5.336761018769589E-02   5.403889208628124E-02
   5.471861767169817E-02   5.540689315245208E-02   5.610382607298727E-02
   5.680952533049058E-02   5.752410119190655E-02   5.824766531116757E-02
   5.898033074663913E-02   5.972221197878628E-02   6.047342492806100E-02
   6.123408697301476E-02   6.200431696863988E-02   6.278423526494001E-02
   6.357396372573580E-02   6.437362574770608E-02   6.518334627966849E-02
   6.600325184210376E-02   6.683347054692390E-02   6.767413211749075E-02
   6.852536790888517E-02   6.938731092843117E-02   7.026009585647945E-02
   7.114385906745047E-02   7.203873865114406E-02   7.294487443431598E-02
   7.386240800252561E-02   7.479148272226004E-02   7.573224376333411E-02
   7.668483812157467E-02   7.764941464178839E-02   7.862612404101868E-02
   7.961511893209662E-02   8.061655384748578E-02   8.163058526342927E-02
   8.265737162439903E-02   8.369707336785268E-02   8.474985294930322E-02
   8.581587486770187E-02   8.689530569114233E-02   8.798831408288707E-02
   8.909507082772072E-02   9.021574885863669E-02   9.135052328385702E-02
   9.249957141419456E-02   9.366307279075754E-02   9.484120921300293E-02
   9.603416476714395E-02   9.724212585491271E-02   9.846528122268693E-02
   9.970382199098154E-02   1.009579416843111E-01   1.022278362614295E-01
   1.035137041459477E-01   1.048157462573390E-01   1.061341660423325E-01
   1.074691695067015E-01   1.088209652474539E-01   1.101897644854240E-01
   1.115757810982777E-01   1.129792316539310E-01   1.144003354443879E-01
   1.158393145200076E-01   1.172963937241978E-01   1.187718007285486E-01
   1.202657660684067E-01   1.217785231788954E-01   1.233103084313912E-01
   1.248613611704561E-01   1.264319237512362E-01   1.280222415773305E-01
   1.296325631391342E-01   1.312631400526682E-01   1.329142270988921E-01
   1.345860822635163E-01   1.362789667773119E-01   1.379931451569279E-01
   1.397288852462242E-01   1.414864582581206E-01   1.432661388169763E-01
   1.450682050014996E-01   1.468929383881976E-01   1.487406240953751E-01
   1.506115508276824E-01   1.525060109212281E-01   1.544243003892564E-01
   1.563667189683989E-01   1.583335701655111E-01   1.603251613050935E-01
   1.623418035773138E-01   1.643838120866304E-01   1.664515059010268E-01
   1.685452081018686E-01   1.706652458343840E-01   1.728119503587821E-01
   1.749856571020127E-01   1.771867057101764E-01   1.794154401015967E-01
   1.816722085205560E-01   1.839573635917117E-01   1.862712623751932E-01
   1.886142664223922E-01   1.909867418324588E-01   1.933890593095018E-01
   1.958215942205151E-01   1.982847266540279E-01   2.007788414794933E-01
   2.033043284074281E-01   2.058615820503020E-01   2.084510019841999E-01
   2.110729928112551E-01   2.137279642228679E-01   2.164163310637240E-01
   2.191385133966108E-01   2.218949365680565E-01   2.246860312747902E-01
   2.275122336310374E-01   2.303739852366672E-01   2.332717332461893E-01
   2.362059304386265E-01   2.391770352882590E-01   2.421855120362648E-01
   2.452318307632570E-01   2.483164674627335E-01   2.514399041154552E-01
   2.546026287647531E-01   2.578051355927884E-01   2.610479249977693E-01
   2.643315036721367E-01   2.676563846817400E-01   2.710230875460005E-01
   2.744321383190907E-01   2.778840696721304E-01   2.813794209764154E-01
   2.849187383876993E-01   2.885025749315274E-01   2.921314905896517E-01
   2.958060523875272E-01   2.995268344829098E-01   3.032944182555731E-01
   3.071093923981454E-01   3.109723530080990E-01   3.148839036808887E-01
   3.188446556042643E-01   3.228552276537732E-01   3.269162464894564E-01
   3.310283466537699E-01   3.351921706707310E-01   3.394083691463126E-01
   3.436776008701056E-01   3.480005329182514E-01   3.523778407576784E-01
   3.568102083516426E-01   3.612983282665971E-01   3.658429017804111E-01
   3.704446389919408E-01   3.751042589319885E-01   3.798224896756505E-01
   3.846000684560785E-01   3.894377417796783E-01   3.943362655427478E-01
   3.992964051495917E-01   4.043189356321158E-01   4.094046417709249E-01
   4.145543182179517E-01   4.197687696206167E-01   4.250488107475610E-01
   4.303952666159539E-01   4.358089726204009E-01   4.412907746634807E-01
   4.468415292879139E-01   4.524621038104046E-01   4.581533764571578E-01
   4.639162365011018E-01   4.697515844008449E-01   4.756603319413668E-01
   4.816434023764929E-01   4.877017305731525E-01   4.938362631574501E-01
   5.000479586625846E-01   5.063377876786146E-01   5.127067330041217E-01
   5.191557897997716E-01   5.256859657438074E-01   5.322982811895081E-01
   5.389937693246128E-01   5.457734763327660E-01   5.526384615569818E-01
   5.595897976651667E-01   5.666285708177320E-01   5.737558808373013E-01
   5.809728413805668E-01   5.882805801122977E-01   5.956802388815360E-01
   6.031729739000216E-01   6.107599559228429E-01   6.184423704313778E-01
   6.262214178185247E-01   6.340983135762620E-01   6.420742884855796E-01
   6.501505888087824E-01   6.583284764842281E-01   6.666092293235053E-01
   6.749941412110901E-01   6.834845223065267E-01   6.920816992491325E-01
   7.007870153652971E-01   7.096018308783760E-01   7.185275231212246E-01
   7.275654867514177E-01   7.367171339691581E-01   7.459838947379436E-01
   7.553672170079994E-01   7.648685669425177E-01   7.744894291467594E-01
   7.842313069000151E-01   7.940957223905046E-01   8.040842169532195E-01
   8.141983513107539E-01   8.244397058171815E-01   8.348098807049772E-01
   8.453104963350669E-01   8.559431934500080E-01   8.667096334303541E-01
   8.776114985542599E-01   8.886504922603274E-01   8.998283394137843E-01
   9.111467865759910E-01   9.226076022773413E-01   9.342125772936086E-01
   9.459635249257468E-01   9.578622812832323E-01   9.699107055709559E-01
   9.821106803797220E-01   9.944641119804188E-01   1.006972930621864E+00
   1.019639090832421E+00   1.032464571725394E+00   1.045451377308263E+00
   1.058601536795825E+00   1.071917104927252E+00   1.085400162287156E+00
   1.099052815630683E+00   1.112877198212690E+00   1.126875470121087E+00
   1.141049818614334E+00   1.155402458463223E+00   1.169935632296933E+00
   1.184651610953441E+00   1.199552693834355E+00   1.214641209264187E+00
   1.229919514854173E+00   1.245389997870648E+00   1.261055075608054E+00
   1.276917195766662E+00   1.292978836835015E+00   1.309242508477209E+00
   1.325710751925030E+00   1.342386140375016E+00   1.359271279390543E+00
   1.376368807308933E+00   1.393681395653708E+00   1.411211749552023E+00
   1.428962608157336E+00   1.446936745077423E+00   1.465136968807742E+00
   1.483566123170281E+00   1.502227087757906E+00   1.521122778384296E+00
   1.540256147539560E+00   1.559630184851550E+00   1.579247917553014E+00
   1.599112410954604E+00   1.619226768923823E+00   1.639594134370031E+00
   1.660217689735511E+00   1.681100657492752E+00   1.702246300647955E+00
   1.723657923250878E+00   1.745338870911122E+00   1.767292531320862E+00
   1.789522334784205E+00   1.812031754753173E+00   1.834824308370425E+00
   1.857903557018842E+00   1.881273106877975E+00   1.904936609487537E+00
   1.928897762317958E+00   1.953160309348111E+00   1.977728041650339E+00
   2.002604797982790E+00   2.027794465389257E+00   2.053300979806525E+00
   2.079128326679357E+00   2.105280541583256E+00   2.131761710854999E+00
   2.158575972231167E+00   2.185727515494657E+00   2.213220583129337E+00
   2.241059470982965E+00   2.269248528938403E+00   2.297792161593309E+00
   2.326694828948363E+00   2.355961047104132E+00   2.385595388966756E+00
   2.415602484962434E+00   2.445987023760968E+00   2.476753753008369E+00
   2.507907480068667E+00   2.539453072775108E+00   2.571395460190722E+00
   2.603739633378537E+00   2.636490646181421E+00   2.669653616011748E+00
   2.703233724651033E+00   2.737236219059563E+00   2.771666412196271E+00
   2.806529683848889E+00   2.841831481474532E+00   2.877577321050912E+00
   2.913772787938177E+00   2.950423537751675E+00   2.987535297245634E+00
   3.025113865207971E+00   3.063165113366394E+00   3.101694987305832E+00
   3.140709507397486E+00   3.180214769739498E+00   3.220216947109473E+00
   3.260722289929023E+00   3.301737127240359E+00   3.343267867695263E+00
   3.385321000556432E+00   3.427903096711420E+00   3.471020809699399E+00
   3.514680876750734E+00   3.558890119839735E+00   3.603655446750585E+00
   3.648983852156678E+00   3.694882418713592E+00   3.741358318165720E+00
   3.788418812466914E+00   3.836071254915161E+00   3.884323091301529E+00
   3.933181861073637E+00   3.982655198513651E+00   4.032750833931208E+00
   4.083476594871268E+00   4.134840407337169E+00   4.186850297029120E+00
   4.239514390598189E+00   4.292840916916147E+00   4.346838208361234E+00
   4.401514702120081E+00   4.456878941506092E+00   4.512939577294298E+00
   4.569705369073102E+00   4.627185186612969E+00   4.685388011252318E+00
   4.744322937300930E+00   4.803999173460887E+00   4.864426044265509E+00
   4.925612991536307E+00   4.987569575858262E+00   5.050305478073743E+00
   5.113830500795091E+00   5.178154569936356E+00   5.243287736264221E+00
   5.309240176968419E+00   5.376022197252010E+00   5.443644231941516E+00
   5.512116847117443E+00   5.581450741765229E+00   5.651656749446957E+00
   5.722745839994181E+00   5.794729121221911E+00   5.867617840664299E+00
   5.941423387332063E+00   6.016157293492006E+00   6.091831236469036E+00
   6.168457040470681E+00   6.246046678434721E+00   6.324612273899960E+00
   6.404166102900507E+00   6.484720595884021E+00   6.566288339653898E+00
   6.648882079336063E+00   6.732514720370390E+00   6.817199330527171E+00
   6.902949141949061E+00   6.989777553218525E+00   7.077698131451493E+00
   7.166724614417203E+00   7.256870912684716E+00   7.348151111796566E+00
   7.440579474469554E+00   7.534170442823402E+00   7.628938640637345E+00
   7.724898875635069E+00   7.822066141798554E+00   7.920455621710799E+00
   8.020082688928227E+00   8.120962910382799E+00   8.223112048814334E+00
   8.326546065233559E+00   8.431281121415953E+00   8.537333582427145E+00
   8.644720019179944E+00   8.753457211023544E+00   8.863562148365430E+00
   8.975052035326039E+00   9.087944292427052E+00   9.202256559313341E+00
   9.318006697509142E+00   9.435212793209077E+00   9.553893160104025E+00
   9.674066342242785E+00   9.795751116929578E+00   9.918966497657985E+00
   1.004373173708196E+01   1.017006633002397E+01   1.029799001652121E+01
   1.042752278490997E+01   1.055868487494881E+01   1.069149678098120E+01
   1.082597925513761E+01   1.096215331057826E+01   1.110004022477639E+01
   1.123966154284282E+01   1.138103908089261E+01   1.152419492945368E+01
   1.166915145691863E+01   1.181593131303982E+01   1.196455743246834E+01
   1.211505303833779E+01   1.226744164589273E+01   1.242174706616315E+01
   1.257799340968491E+01   1.273620509026704E+01   1.289640682880656E+01
   1.305862365715100E+01   1.322288092200985E+01   1.338920428891494E+01
   1.355761974623070E+01   1.372815360921503E+01   1.390083252413091E+01
   1.407568347241016E+01   1.425273377486919E+01   1.443201109597794E+01
   1.461354344818261E+01   1.479735919628252E+01   1.498348706186231E+01
   1.517195612777968E+01   1.536279584270958E+01   1.555603602574578E+01
   1.575170687105997E+01   1.594983895261987E+01   1.615046322896633E+01
   1.635361104805067E+01   1.655931415213298E+01   1.676760468274171E+01
   1.697851518569608E+01   1.719207861619130E+01   1.740832834394783E+01
   1.762729815842565E+01   1.784902227410371E+01   1.807353533582621E+01