<UPF version="2.0.1">
  <PP_INFO>
    Generated using "atomic" code by A. Dal Corso  v.7.2
    Author: ADC
    Generation date: 22Sep2023
    Pseudopotential type: PAW
    Element: Nd
    Functional:  SLA  PW   PSX  PSC
    Suggested minimum cutoff for wavefunctions: 110. Ry
    Suggested minimum cutoff for charge density: 563. Ry
    The Pseudo was generated with a Scalar-Relativistic Calculation
    Local Potential by smoothing AE potential with Bessel fncs, cutoff radius:   1.7000
    Valence configuration: 
    nl pn  l   occ       Rcut    Rcut US       E pseu
    5S  1  0  2.00      1.300      1.700    -3.091952
    6S  2  0  2.00      1.300      1.700    -0.273570
    5P  2  1  6.00      1.400      1.900    -1.717406
    4D  3  2 10.00      1.050      1.300    -8.791008
    5D  4  2  0.50      1.050      1.300    -0.178580
    4F  4  3  3.50      1.000      1.300    -0.308362
    Generation configuration:
    5S  1  0  2.00      1.300      1.700    -3.091974
    6S  2  0  2.00      1.300      1.700    -0.273576
    5P  2  1  6.00      1.400      1.900    -1.717421
    6P  3  1  0.00      1.400      1.900     0.300000
    4D  3  2 10.00      1.050      1.300    -8.791089
    5D  4  2  0.50      1.050      1.300    -0.178598
    4F  4  3  3.50      1.000      1.300    -0.308416
    4F  4  3  0.00      1.000      1.300     1.000000
    Pseudization used: troullier-martins
    <PP_INPUTFILE>
@input
title='Nd',
zed=60.0,
rel=1,
config='[Xe] 4f3.5 5d0.5 6s2. 6p0.',
iswitch=3,
dft='PBESOL'
/
@inputp
lpaw=.true.,
pseudotype=3,
file_pseudopw='Nd.pbesol-spdfn-kjpaw_psl.1.0.0.UPF',
author='ADC',
lloc=-1,
rcloc=1.7,
which_augfun='PSQ',
rmatch_augfun_nc=.true.,
nlcc=.true.,
new_core_ps=.true.,
rcore=1.1,
tm=.true.
/
8
5S  1  0  2.00  0.00  1.30  1.70  0.0
6S  2  0  2.00  0.00  1.30  1.70  0.0
5P  2  1  6.00  0.00  1.40  1.90  0.0
6P  3  1  0.00  0.30  1.40  1.90  0.0
4D  3  2 10.00  0.00  1.05  1.30  0.0
5D  4  2  0.50  0.00  1.05  1.30  0.0
4F  4  3  3.50  0.00  1.00  1.30  0.0
4F  4  3  0.00  1.00  1.00  1.30  0.0
    </PP_INPUTFILE>
  </PP_INFO>
    <!-- END OF HUMAN READABLE SECTION -->
  <PP_HEADER generated="Generated using 'atomic' code by A. Dal Corso  v.7.2" author="ADC" date="22Sep2023" comment="" element="Nd" pseudo_type="PAW" relativistic="scalar" is_ultrasoft="true" is_paw="true" is_coulomb="false" has_so="false" has_wfc="true" has_gipaw="false" paw_as_gipaw="false" core_correction="true" functional=" SLA  PW   PSX  PSC" z_valence="24.000000000000000" total_psenergy="-900.98380544694851" wfc_cutoff="109.56666883067163" rho_cutoff="562.60892364250185" l_max="3" l_max_rho="6" l_local="-1" mesh_size="1257" number_of_wfc="6" number_of_proj="8"/>
  <PP_MESH mesh="1257" dx="1.2500000000000001E-002" xmin="-7.0000000000000000" rmax="100.00000000000000" zmesh="60.000000000000000">
    <PP_R>
   1.519803275924194E-05   1.538920047781704E-05   1.558277279027637E-05
   1.577877994268757E-05   1.597725256156700E-05   1.617822165866515E-05
   1.638171863581231E-05   1.658777528982519E-05   1.679642381747517E-05
   1.700769682051924E-05   1.722162731079395E-05   1.743824871537364E-05
   1.765759488179350E-05   1.787970008333828E-05   1.810459902439763E-05
   1.833232684588864E-05   1.856291913074672E-05   1.879641190948554E-05
   1.903284166582679E-05   1.927224534240096E-05   1.951466034651957E-05
   1.976012455602021E-05   2.000867632518501E-05   2.026035449073358E-05
   2.051519837789135E-05   2.077324780653416E-05   2.103454309741024E-05
   2.129912507844041E-05   2.156703509109747E-05   2.183831499686600E-05
   2.211300718378319E-05   2.239115457306211E-05   2.267280062579823E-05
   2.295798934976029E-05   2.324676530626665E-05   2.353917361714803E-05
   2.383525997179791E-05   2.413507063431159E-05   2.443865245071505E-05
   2.474605285628478E-05   2.505731988295954E-05   2.537250216684552E-05
   2.569164895581584E-05   2.601481011720554E-05   2.634203614560362E-05
   2.667337817074274E-05   2.700888796548844E-05   2.734861795392877E-05
   2.769262121956556E-05   2.804095151360902E-05   2.839366326337623E-05
   2.875081158079571E-05   2.911245227101866E-05   2.947864184113868E-05
   2.984943750902116E-05   3.022489721224359E-05   3.060507961714845E-05
   3.099004412801002E-05   3.137985089631629E-05   3.177456083016794E-05
   3.217423560379515E-05   3.257893766719445E-05   3.298873025588661E-05
   3.340367740079732E-05   3.382384393826224E-05   3.424929552015765E-05
   3.468009862415882E-05   3.511632056412723E-05   3.555802950062847E-05
   3.600529445158257E-05   3.645818530304808E-05   3.691677282014195E-05
   3.738112865809672E-05   3.785132537345678E-05   3.832743643541560E-05
   3.880953623729523E-05   3.929770010817055E-05   3.979200432463956E-05
   4.029252612274173E-05   4.079934371002638E-05   4.131253627777264E-05
   4.183218401336331E-05   4.235836811281430E-05   4.289117079346167E-05
   4.343067530680831E-05   4.397696595153203E-05   4.453012808665751E-05
   4.509024814489378E-05   4.565741364613947E-05   4.623171321115815E-05
   4.681323657542521E-05   4.740207460314946E-05   4.799831930147072E-05
   4.860206383483613E-05   4.921340253955744E-05   4.983243093855100E-05
   5.045924575626359E-05   5.109394493378572E-05   5.173662764415514E-05
   5.238739430785300E-05   5.304634660849445E-05   5.371358750871710E-05
   5.438922126626914E-05   5.507335345029970E-05   5.576609095785453E-05
   5.646754203057853E-05   5.717781627162891E-05   5.789702466280089E-05
   5.862527958186881E-05   5.936269482014550E-05   6.010938560026217E-05
   6.086546859417239E-05   6.163106194138221E-05   6.240628526740967E-05
   6.319125970247679E-05   6.398610790043606E-05   6.479095405793550E-05
   6.560592393382472E-05   6.643114486880485E-05   6.726674580532597E-05
   6.811285730773445E-05   6.896961158267395E-05   6.983714249974299E-05
   7.071558561241234E-05   7.160507817920567E-05   7.250575918514616E-05
   7.341776936347343E-05   7.434125121763336E-05   7.527634904354444E-05
   7.622320895214455E-05   7.718197889222076E-05   7.815280867352684E-05
   7.913584999019129E-05   8.013125644441976E-05   8.113918357049605E-05
   8.215978885908420E-05   8.319323178183694E-05   8.423967381631357E-05
   8.529927847121085E-05   8.637221131191208E-05   8.745863998635641E-05
   8.855873425123459E-05   8.967266599851368E-05   9.080060928229542E-05
   9.194274034601286E-05   9.309923764996833E-05   9.427028189921846E-05
   9.545605607180975E-05   9.665674544736903E-05   9.787253763605419E-05
   9.910362260786823E-05   1.003501927223426E-04   1.016124427585940E-04
   1.028905699457584E-04   1.041847739938094E-04   1.054952571247624E-04
   1.068222241042730E-04   1.081658822736315E-04   1.095264415821602E-04
   1.109041146200196E-04   1.122991166514244E-04   1.137116656482805E-04
   1.151419823242422E-04   1.165902901692002E-04   1.180568154842021E-04
   1.195417874168116E-04   1.210454379969149E-04   1.225680021729739E-04
   1.241097178487390E-04   1.256708259204213E-04   1.272515703143327E-04
   1.288521980250012E-04   1.304729591537629E-04   1.321141069478416E-04
   1.337758978399193E-04   1.354585914882035E-04   1.371624508170005E-04
   1.388877420577968E-04   1.406347347908589E-04   1.424037019873558E-04
   1.441949200520106E-04   1.460086688662905E-04   1.478452318321376E-04
   1.497048959162519E-04   1.515879516949304E-04   1.534946933994690E-04
   1.554254189621388E-04   1.573804300627368E-04   1.593600321757251E-04
   1.613645346179615E-04   1.633942505970305E-04   1.654494972601835E-04
   1.675305957438931E-04   1.696378712240311E-04   1.717716529666792E-04
   1.739322743795751E-04   1.761200730642109E-04   1.783353908685821E-04
   1.805785739406025E-04   1.828499727821915E-04   1.851499423040384E-04
   1.874788418810611E-04   1.898370354085563E-04   1.922248913590604E-04
   1.946427828399242E-04   1.970910876516103E-04   1.995701883467270E-04
   2.020804722898017E-04   2.046223317178073E-04   2.071961638014515E-04
   2.098023707072333E-04   2.124413596602845E-04   2.151135430079979E-04
   2.178193382844580E-04   2.205591682756823E-04   2.233334610856805E-04
   2.261426502033489E-04   2.289871745702024E-04   2.318674786489603E-04
   2.347840124929956E-04   2.377372318166543E-04   2.407275980664646E-04
   2.437555784932370E-04   2.468216462250733E-04   2.499262803412953E-04
   2.530699659472991E-04   2.562531942503572E-04   2.594764626363681E-04
   2.627402747475748E-04   2.660451405612603E-04   2.693915764694312E-04
   2.727801053595071E-04   2.762112566960209E-04   2.796855666033493E-04
   2.832035779494847E-04   2.867658404308564E-04   2.903729106582253E-04
   2.940253522436527E-04   2.977237358885672E-04   3.014686394729385E-04
   3.052606481455696E-04   3.091003544155314E-04   3.129883582447402E-04
   3.169252671417043E-04   3.209116962564488E-04   3.249482684766333E-04
   3.290356145248797E-04   3.331743730573238E-04   3.373651907634065E-04
   3.416087224669210E-04   3.459056312283290E-04   3.502565884483672E-04
   3.546622739729529E-04   3.591233761994129E-04   3.636405921840462E-04
   3.682146277510407E-04   3.728461976027600E-04   3.775360254314162E-04
   3.822848440321488E-04   3.870933954175263E-04   3.919624309334851E-04
   3.968927113767313E-04   4.018850071136146E-04   4.069400982005006E-04
   4.120587745056566E-04   4.172418358326691E-04   4.224900920454158E-04
   4.278043631946073E-04   4.331854796459225E-04   4.386342822097552E-04
   4.441516222725914E-04   4.497383619300414E-04   4.553953741215428E-04
   4.611235427667596E-04   4.669237629036970E-04   4.727969408285517E-04
   4.787439942373239E-04   4.847658523692079E-04   4.908634561517881E-04
   4.970377583480618E-04   5.032897237053083E-04   5.096203291058349E-04
   5.160305637196148E-04   5.225214291588482E-04   5.290939396344658E-04
   5.357491221146012E-04   5.424880164850572E-04   5.493116757117894E-04
   5.562211660054346E-04   5.632175669879093E-04   5.703019718611005E-04
   5.774754875776838E-04   5.847392350140840E-04   5.920943491456161E-04
   5.995419792238278E-04   6.070832889560706E-04   6.147194566873336E-04
   6.224516755843604E-04   6.302811538220847E-04   6.382091147724110E-04
   6.462367971953668E-04   6.543654554326637E-04   6.625963596036886E-04
   6.709307958039642E-04   6.793700663061037E-04   6.879154897632925E-04
   6.965684014153319E-04   7.053301532972719E-04   7.142021144506698E-04
   7.231856711375062E-04   7.322822270567904E-04   7.414932035638921E-04
   7.508200398926303E-04   7.602641933801568E-04   7.698271396946686E-04
   7.795103730659830E-04   7.893154065190155E-04   7.992437721101913E-04
   8.092970211668329E-04   8.194767245295597E-04   8.297844727977324E-04
   8.402218765779896E-04   8.507905667359069E-04   8.614921946508235E-04
   8.723284324738730E-04   8.833009733892633E-04   8.944115318788356E-04
   9.056618439899582E-04   9.170536676067876E-04   9.285887827249399E-04
   9.402689917296225E-04   9.520961196772549E-04   9.640720145806414E-04
   9.761985476977260E-04   9.884776138239786E-04   1.000911131588466E-03
   1.013501043753633E-03   1.026249317518871E-03   1.039157944827891E-03
   1.052228942679973E-03   1.065464353445126E-03   1.078866245183209E-03
   1.092436711967073E-03   1.106177874209761E-03   1.120091878995829E-03
   1.134180900416837E-03   1.148447139911043E-03   1.162892826607395E-03
   1.177520217673827E-03   1.192331598669954E-03   1.207329283904191E-03
   1.222515616795369E-03   1.237892970238898E-03   1.253463746977541E-03
   1.269230379976839E-03   1.285195332805279E-03   1.301361100019219E-03
   1.317730207552678E-03   1.334305213112010E-03   1.351088706575554E-03
   1.368083310398313E-03   1.385291680021709E-03   1.402716504288507E-03
   1.420360505862948E-03   1.438226441656175E-03   1.456317103257006E-03
   1.474635317368122E-03   1.493183946247745E-03   1.511965888156876E-03
   1.530984077812148E-03   1.550241486844392E-03   1.569741124262945E-03
   1.589486036925828E-03   1.609479310015814E-03   1.629724067522501E-03
   1.650223472730438E-03   1.670980728713396E-03   1.691999078834851E-03
   1.713281807254774E-03   1.734832239442777E-03   1.756653742697739E-03
   1.778749726673937E-03   1.801123643913822E-03   1.823778990387483E-03
   1.846719306038899E-03   1.869948175339062E-03   1.893469227846063E-03
   1.917286138772207E-03   1.941402629558284E-03   1.965822468455043E-03
   1.990549471111993E-03   2.015587501173611E-03   2.040940470883032E-03
   2.066612341693355E-03   2.092607124886622E-03   2.118928882200593E-03
   2.145581726463404E-03   2.172569822236195E-03   2.199897386463838E-03
   2.227568689133842E-03   2.255588053943545E-03   2.283959858975708E-03
   2.312688537382588E-03   2.341778578078636E-03   2.371234526441895E-03
   2.401060985024221E-03   2.431262614270457E-03   2.461844133246614E-03
   2.492810320377252E-03   2.524166014192111E-03   2.555916114082141E-03
   2.588065581065050E-03   2.620619438560461E-03   2.653582773174839E-03
   2.686960735496281E-03   2.720758540899307E-03   2.754981470359776E-03
   2.789634871280043E-03   2.824724158324503E-03   2.860254814265648E-03
   2.896232390840752E-03   2.932662509619358E-03   2.969550862881642E-03
   3.006903214507848E-03   3.044725400878913E-03   3.083023331788405E-03
   3.121802991365951E-03   3.161070439012255E-03   3.200831810345904E-03
   3.241093318162061E-03   3.281861253403234E-03   3.323141986142253E-03
   3.364941966577591E-03   3.407267726041235E-03   3.450125878019213E-03
   3.493523119184964E-03   3.537466230445718E-03   3.581962078002011E-03
   3.627017614420550E-03   3.672639879720566E-03   3.718836002473830E-03
   3.765613200918515E-03   3.812978784087042E-03   3.860940152948148E-03
   3.909504801563297E-03   3.958680318257636E-03   4.008474386805703E-03
   4.058894787632013E-03   4.109949399026777E-03   4.161646198376895E-03
   4.213993263412441E-03   4.266998773468835E-03   4.320671010764860E-03
   4.375018361696790E-03   4.430049318148779E-03   4.485772478819731E-03
   4.542196550566878E-03   4.599330349766220E-03   4.657182803690124E-03
   4.715762951902218E-03   4.775079947669835E-03   4.835143059394256E-03
   4.895961672058882E-03   4.957545288695678E-03   5.019903531870039E-03
   5.083046145184321E-03   5.146982994800332E-03   5.211724070980898E-03
   5.277279489650889E-03   5.343659493977848E-03   5.410874455972495E-03
   5.478934878109403E-03   5.547851394967994E-03   5.617634774894241E-03
   5.688295921683232E-03   5.759845876282909E-03   5.832295818519257E-03
   5.905657068843147E-03   5.979941090099196E-03   6.055159489316858E-03
   6.131324019524039E-03   6.208446581583551E-03   6.286539226052617E-03
   6.365614155065818E-03   6.445683724241692E-03   6.526760444613316E-03
   6.608856984583216E-03   6.691986171902780E-03   6.776160995676656E-03
   6.861394608392313E-03   6.947700327975139E-03   7.035091639869426E-03
   7.123582199145447E-03   7.213185832633125E-03   7.303916541082493E-03
   7.395788501351331E-03   7.488816068620361E-03   7.583013778636228E-03
   7.678396349982768E-03   7.774978686380812E-03   7.872775879016912E-03
   7.971803208901403E-03   8.072076149256044E-03   8.173610367931773E-03
   8.276421729856830E-03   8.380526299515682E-03   8.485940343459154E-03
   8.592680332846072E-03   8.700762946016939E-03   8.810205071099962E-03
   8.921023808649838E-03   9.033236474319787E-03   9.146860601567110E-03
   9.261913944392861E-03   9.378414480115936E-03   9.496380412182049E-03
   9.615830173008112E-03   9.736782426862267E-03   9.859256072780258E-03
   9.983270247518430E-03   1.010884432854389E-02   1.023599793706230E-02
   1.036475094108367E-02   1.049512345852684E-02   1.062713586036290E-02
   1.076080877379820E-02   1.089616308549746E-02   1.103321994484724E-02
   1.117200076726066E-02   1.131252723752358E-02   1.145482131318287E-02
   1.159890522797737E-02   1.174480149531189E-02   1.189253291177505E-02
   1.204212256070121E-02   1.219359381577736E-02   1.234697034469530E-02
   1.250227611284970E-02   1.265953538708281E-02   1.281877273947618E-02
   1.298001305119008E-02   1.314328151635128E-02   1.330860364598962E-02
   1.347600527202421E-02   1.364551255129971E-02   1.381715196967334E-02
   1.399095034615346E-02   1.416693483708997E-02   1.434513294041764E-02
   1.452557249995264E-02   1.470828170974326E-02   1.489328911847526E-02
   1.508062363393266E-02   1.527031452751463E-02   1.546239143880923E-02
   1.565688438022460E-02   1.585382374167857E-02   1.605324029534703E-02
   1.625516520047222E-02   1.645963000823137E-02   1.666666666666667E-02
   1.687630752567724E-02   1.708858534207382E-02   1.730353328469709E-02
   1.752118493960041E-02   1.774157431529766E-02   1.796473584807719E-02
   1.819070440738253E-02   1.841951530126080E-02   1.865120428187969E-02
   1.888580755111377E-02   1.912336176620121E-02   1.936390404547139E-02
   1.960747197414485E-02   1.985410361020598E-02   2.010383749034968E-02
   2.035671263600284E-02   2.061276855942142E-02   2.087204526986442E-02
   2.113458327984534E-02   2.140042361146236E-02   2.166960780280819E-02
   2.194217791446037E-02   2.221817653605339E-02   2.249764679293340E-02
   2.278063235289661E-02   2.306717743301253E-02   2.335732680653290E-02
   2.365112580988763E-02   2.394862034976876E-02   2.424985691030335E-02
   2.455488256031693E-02   2.486374496068785E-02   2.517649237179456E-02
   2.549317366105633E-02   2.581383831056889E-02   2.613853642483615E-02
   2.646731873859907E-02   2.680023662476306E-02   2.713734210242518E-02
   2.747868784500214E-02   2.782432718846072E-02   2.817431413965153E-02
   2.852870338474776E-02   2.888755029778994E-02   2.925091094933831E-02
   2.961884211523398E-02   2.999140128547016E-02   3.036864667317517E-02
   3.075063722370835E-02   3.113743262387037E-02   3.152909331122950E-02
   3.192568048356494E-02   3.232725610842925E-02   3.273388293283081E-02
   3.314562449303820E-02   3.356254512450795E-02   3.398470997193693E-02
   3.441218499944146E-02   3.484503700086428E-02   3.528333361021125E-02
   3.572714331221933E-02   3.617653545305739E-02   3.663158025116172E-02
   3.709234880820782E-02   3.755891312022015E-02   3.803134608882174E-02
   3.850972153262508E-02   3.899411419876653E-02   3.948459977458570E-02
   3.998125489945163E-02   4.048415717673814E-02   4.099338518594918E-02
   4.150901849499720E-02   4.203113767263583E-02   4.255982430104878E-02
   4.309516098859745E-02   4.363723138272836E-02   4.418612018304346E-02
   4.474191315453454E-02   4.530469714098408E-02   4.587456007853512E-02
   4.645159100943086E-02   4.703588009592832E-02   4.762751863438609E-02
   4.822659906952935E-02   4.883321500889508E-02   4.944746123745781E-02
   5.006943373244054E-02   5.069922967831109E-02   5.133694748196718E-02
   5.198268678811326E-02   5.263654849482948E-02   5.329863476933791E-02
   5.396904906396605E-02   5.464789613231123E-02   5.533528204560919E-02
   5.603131420930717E-02   5.673610137984696E-02   5.744975368165795E-02
   5.817238262436402E-02   5.890410112020789E-02   5.964502350169300E-02
   6.039526553944901E-02   6.115494446032078E-02   6.192417896568506E-02
   6.270308924999858E-02   6.349179701957770E-02   6.429042551161622E-02
   6.509909951344091E-02   6.591794538200962E-02   6.674709106365548E-02
   6.758666611407795E-02   6.843680171858685E-02   6.929763071260017E-02
   7.016928760239934E-02   7.105190858614703E-02   7.194563157516741E-02
   7.285059621549594E-02   7.376694390969897E-02   7.469481783896774E-02
   7.563436298549180E-02   7.658572615511150E-02   7.754905600025781E-02
   7.852450304317908E-02   7.951221969946004E-02   8.051236030183806E-02
   8.152508112431676E-02   8.255054040658522E-02   8.358889837874271E-02
   8.464031728633468E-02   8.570496141570486E-02   8.678299711966417E-02
   8.787459284348483E-02   8.897991915121967E-02   9.009914875235278E-02
   9.123245652878675E-02   9.238001956216707E-02   9.354201716155258E-02
   9.471863089143247E-02   9.591004460009551E-02   9.711644444835800E-02
   9.833801893865030E-02   9.957495894447203E-02   1.008274577402158E-01
   1.020957110313664E-01   1.033799169850812E-01   1.046802762611528E-01
   1.059969920433638E-01   1.073302700712344E-01   1.086803186721685E-01
   1.100473487940072E-01   1.114315740379879E-01   1.128332106921212E-01
   1.142524777649864E-01   1.156895970199506E-01   1.171447930098217E-01
   1.186182931119333E-01   1.201103275636744E-01   1.216211294984639E-01
   1.231509349821775E-01   1.246999830500348E-01   1.262685157439475E-01
   1.278567781503405E-01   1.294650184384463E-01   1.310934878990815E-01
   1.327424409839130E-01   1.344121353452146E-01   1.361028318761274E-01
   1.378147947514246E-01   1.395482914687877E-01   1.413035928906064E-01
   1.430809732862983E-01   1.448807103751667E-01   1.467030853697935E-01
   1.485483830199789E-01   1.504168916572355E-01   1.523089032398388E-01
   1.542247133984481E-01   1.561646214822989E-01   1.581289306059754E-01
   1.601179476967752E-01   1.621319835426648E-01   1.641713528408430E-01
   1.662363742469121E-01   1.683273704246676E-01   1.704446680965168E-01
   1.725885980945283E-01   1.747594954121262E-01   1.769576992564335E-01
   1.791835531012726E-01   1.814374047408358E-01   1.837196063440268E-01
   1.860305145094894E-01   1.883704903213265E-01   1.907398994055187E-01
   1.931391119870567E-01   1.955685029477869E-01   1.980284518849899E-01
   2.005193431706923E-01   2.030415660117245E-01   2.055955145105378E-01
   2.081815877267802E-01   2.108001897396537E-01   2.134517297110507E-01
   2.161366219494855E-01   2.188552859748338E-01   2.216081465838798E-01
   2.243956339166951E-01   2.272181835238461E-01   2.300762364344516E-01
   2.329702392250941E-01   2.359006440895968E-01   2.388679089096825E-01
   2.418724973265154E-01   2.449148788131490E-01   2.479955287478808E-01
   2.511149284885298E-01   2.542735654476530E-01   2.574719331687004E-01
   2.607105314031362E-01   2.639898661885239E-01   2.673104499275946E-01
   2.706728014683143E-01   2.740774461849511E-01   2.775249160601690E-01
   2.810157497681508E-01   2.845504927587644E-01   2.881296973427944E-01
   2.917539227782381E-01   2.954237353576941E-01   2.991397084968443E-01
   3.029024228240511E-01   3.067124662710846E-01   3.105704341649836E-01
   3.144769293210814E-01   3.184325621371945E-01   3.224379506889969E-01
   3.264937208266003E-01   3.306005062723389E-01   3.347589487197944E-01
   3.389696979340605E-01   3.432334118532673E-01   3.475507566913906E-01
   3.519224070423438E-01   3.563490459853890E-01   3.608313651918679E-01
   3.653700650332745E-01   3.699658546906944E-01   3.746194522656104E-01
   3.793315848921122E-01   3.841029888505100E-01   3.889344096823787E-01
   3.938266023070541E-01   3.987803311395858E-01   4.037963702101830E-01
   4.088755032851562E-01   4.140185239893808E-01   4.192262359303066E-01
   4.244994528235183E-01   4.298389986198844E-01   4.352457076342999E-01
   4.407204246760467E-01   4.462640051808026E-01   4.518773153442985E-01
   4.575612322576683E-01   4.633166440444949E-01   4.691444499995776E-01
   4.750455607294553E-01   4.810208982946839E-01   4.870713963539157E-01
   4.931980003097830E-01   4.994016674566171E-01   5.056833671300327E-01
   5.120440808583823E-01   5.184848025161277E-01   5.250065384791328E-01
   5.316103077819083E-01   5.382971422768453E-01   5.450680867954362E-01
   5.519241993115386E-01   5.588665511066827E-01   5.658962269374592E-01
   5.730143252050205E-01   5.802219581267009E-01   5.875202519098089E-01
   5.949103469275985E-01   6.023933978974489E-01   6.099705740613006E-01
   6.176430593683432E-01   6.254120526600168E-01   6.332787678573301E-01
   6.412444341505357E-01   6.493102961912004E-01   6.574776142866759E-01
   6.657476645970323E-01   6.741217393344573E-01   6.826011469651634E-01
   6.911872124138470E-01   6.998812772707002E-01   7.086847000010464E-01
   7.175988561575993E-01   7.266251385953918E-01   7.357649576894214E-01
   7.450197415550143E-01   7.543909362709794E-01   7.638800061055586E-01
   7.734884337452163E-01   7.832177205263224E-01   7.930693866697284E-01
   8.030449715183136E-01   8.131460337775077E-01   8.233741517588364E-01
   8.337309236265469E-01   8.442179676473111E-01   8.548369224430951E-01
   8.655894472471916E-01   8.764772221634742E-01   8.875019484289283E-01
   8.986653486794595E-01   9.099691672190706E-01   9.214151702924080E-01
   9.330051463607359E-01   9.447409063813978E-01   9.566242840907706E-01
   9.686571362907997E-01   9.808413431391243E-01   9.931788084428498E-01
   1.005671459956034E+00   1.018321249680890E+00   1.031130154172798E+00
   1.044100174849149E+00   1.057233338302056E+00   1.070531696615032E+00
   1.083997327683617E+00   1.097632335540062E+00   1.111438850682087E+00
   1.125419030405769E+00   1.139575059142637E+00   1.153909148800977E+00
   1.168423539111464E+00   1.183120497977115E+00   1.198002321827651E+00
   1.213071335978329E+00   1.228329894993264E+00   1.243780383053348E+00
   1.259425214328778E+00   1.275266833356265E+00   1.291307715421016E+00
   1.307550366943486E+00   1.323997325871022E+00   1.340651162074422E+00
   1.357514477749469E+00   1.374589907823552E+00   1.391880120367355E+00
   1.409387817011767E+00   1.427115733370011E+00   1.445066639465082E+00
   1.463243340162582E+00   1.481648675608972E+00   1.500285521675363E+00
   1.519156790406874E+00   1.538265430477632E+00   1.557614427651529E+00
   1.577206805248736E+00   1.597045624618115E+00   1.617133985615557E+00
   1.637475027088334E+00   1.658071927365566E+00   1.678927904754819E+00
   1.700046218044995E+00   1.721430167015514E+00   1.743083092951904E+00
   1.765008379167900E+00   1.787209451534076E+00   1.809689779013160E+00
   1.832452874202060E+00   1.855502293880706E+00   1.878841639567822E+00
   1.902474558083651E+00   1.926404742119794E+00   1.950635930816198E+00
   1.975171910345389E+00   2.000016514504093E+00   2.025173625312250E+00
   2.050647173619609E+00   2.076441139719924E+00   2.102559553972870E+00
   2.129006497433817E+00   2.155786102491483E+00   2.182902553513643E+00
   2.210360087500944E+00   2.238162994748925E+00   2.266315619518418E+00
   2.294822360714312E+00   2.323687672572919E+00   2.352916065357950E+00
   2.382512106065234E+00   2.412480419136352E+00   2.442825687181186E+00
   2.473552651709610E+00   2.504666113872350E+00   2.536170935211160E+00
   2.568072038418482E+00   2.600374408106585E+00   2.633083091586458E+00
   2.666203199656445E+00   2.699739907400806E+00   2.733698454998367E+00
   2.768084148541269E+00   2.802902360864091E+00   2.838158532383352E+00
   2.873858171947572E+00   2.910006857698074E+00   2.946610237940541E+00
   2.983674032027611E+00   3.021204031252523E+00   3.059206099754000E+00
   3.097686175432572E+00   3.136650270878341E+00   3.176104474310500E+00
   3.216054950528610E+00   3.256507941875849E+00   3.297469769214429E+00
   3.338946832913197E+00   3.380945613847748E+00   3.423472674413056E+00
   3.466534659548844E+00   3.510138297777913E+00   3.554290402257434E+00
   3.598997871843568E+00   3.644267692169403E+00   3.690106936736453E+00
   3.736522768019955E+00   3.783522438587968E+00   3.831113292234647E+00
   3.879302765127705E+00   3.928098386970310E+00   3.977507782177665E+00
   4.027538671068280E+00   4.078198871070340E+00   4.129496297943172E+00
   4.181438967014077E+00   4.234034994430788E+00   4.287292598429583E+00
   4.341220100619447E+00   4.395825927282321E+00   4.451118610689702E+00
   4.507106790435883E+00   4.563799214787843E+00   4.621204742052233E+00
   4.679332341959492E+00   4.738191097065349E+00   4.797790204170056E+00
   4.858138975755336E+00   4.919246841439539E+00   4.981123349451010E+00
   5.043778168119998E+00   5.107221087389409E+00   5.171462020344440E+00
   5.236511004761570E+00   5.302378204676968E+00   5.369073911974609E+00
   5.436608547994472E+00   5.504992665160815E+00   5.574236948631084E+00
   5.644352217965459E+00   5.715349428817406E+00   5.787239674645585E+00
   5.860034188447147E+00   5.933744344512985E+00   6.008381660204962E+00
   6.083957797755482E+00   6.160484566089821E+00   6.237973922671203E+00
   6.316437975369259E+00   6.395888984351870E+00   6.476339364000813E+00
   6.557801684851608E+00   6.640288675557599E+00   6.723813224878919E+00
   6.808388383696342E+00   6.894027367050480E+00   6.980743556206738E+00
   7.068550500746076E+00   7.157461920682232E+00   7.247491708605478E+00
   7.338653931853315E+00   7.430962834708626E+00   7.524432840625258E+00
   7.619078554481816E+00   7.714914764863660E+00   7.811956446373617E+00
   7.910218761971882E+00   8.009717065345155E+00   8.110466903305786E+00
   8.212484018220946E+00   8.315784350472367E+00   8.420384040947159E+00
   8.526299433559737E+00   8.633547077805700E+00   8.742143731347674E+00
   8.852106362633686E+00   8.963452153548623E+00   9.076198502098825E+00
   9.190363025130646E+00   9.305963561083100E+00   9.423018172775086E+00
   9.541545150227865E+00   9.661563013522773E+00   9.783090515695147E+00
   9.906146645664471E+00   1.003075063120137E+01   1.015692194193213E+01
   1.028468029238073E+01   1.041404564504935E+01   1.054503821353757E+01
   1.067767846570068E+01   1.081198712684798E+01   1.094798518298100E+01
   1.108569388407270E+01   1.122513474738782E+01   1.136632956084492E+01
   1.150930038642091E+01   1.165406956359810E+01   1.180065971285499E+01
   1.194909373920066E+01   1.209939483575369E+01   1.225158648736623E+01
   1.240569247429345E+01   1.256173687590936E+01   1.271974407446919E+01
   1.287973875891917E+01   1.304174592875428E+01   1.320579089792437E+01
   1.337189929878965E+01   1.354009708612573E+01   1.371041054117904E+01
   1.388286627577348E+01   1.405749123646839E+01   1.423431270876919E+01
   1.441335832139070E+01   1.459465605057410E+01   1.477823422445849E+01
   1.496412152750697E+01   1.515234700498887E+01   1.534294006751802E+01
   1.553593049564814E+01   1.573134844452633E+01   1.592922444860463E+01
   1.612958942641128E+01   1.633247468538174E+01   1.653791192675044E+01
   1.674593325050436E+01   1.695657116039852E+01   1.716985856903490E+01