<UPF version="2.0.1">
  <PP_INFO>
    Generated using "atomic" code by A. Dal Corso  v.7.2
    Author: ADC
    Generation date: 22Sep2023
    Pseudopotential type: USPP
    Element: Np
    Functional: PBESOL
    Suggested minimum cutoff for wavefunctions: 111. Ry
    Suggested minimum cutoff for charge density: 555. Ry
    The Pseudo was generated with a Scalar-Relativistic Calculation
    Local Potential by smoothing AE potential with Bessel fncs, cutoff radius:   2.1000
    Valence configuration: 
    nl pn  l   occ       Rcut    Rcut US       E pseu
    6S  1  0  2.00      1.400      1.600    -3.781758
    7S  2  0  2.00      1.400      1.600    -0.333388
    6P  2  1  6.00      1.300      2.100    -1.844004
    6D  3  2  1.50      1.500      2.200    -0.197712
    5F  4  3  3.50      1.100      1.300    -0.431108
    Generation configuration:
    6S  1  0  2.00      1.400      1.600    -3.781816
    7S  2  0  2.00      1.400      1.600    -0.333400
    6P  2  1  6.00      1.300      2.100    -1.844038
    7P  3  1  0.00      1.300      2.100     5.000000
    6D  3  2  1.50      1.500      2.200    -0.197727
    6D  3  2  0.00      1.500      2.200     4.800000
    5F  4  3  3.50      1.100      1.300    -0.431169
    5F  4  3  0.00      1.100      1.300     3.100000
    Pseudization used: troullier-martins
    <PP_INPUTFILE>
@input
title='Np',
zed=93.0,
rel=1,
config='[Rn] 6d1.5 7s2.0 7p0. 5f3.5',
iswitch=3,
dft='PBESOL'
/
@inputp
lpaw=.false.,
pseudotype=3,
file_pseudopw='Np.pbesol-spfn-rrkjus_psl.1.0.0.UPF',
author='ADC',
lloc=-1,
rcloc=2.1,
which_augfun='PSQ',
rmatch_augfun_nc=.true.,
nlcc=.true.,
new_core_ps=.true.,
rcore=1.1,
tm=.true.
/
8
6S  1  0  2.00  0.00  1.40  1.60  0.0
7S  2  0  2.00  0.00  1.40  1.60  0.0
6P  2  1  6.00  0.00  1.30  2.10  0.0
7P  3  1  0.00  5.00  1.30  2.10  0.0
6D  3  2  1.50  0.00  1.50  2.20  0.0
6D  3  2  0.00  4.80  1.50  2.20  0.0
5F  4  3  3.50  0.00  1.10  1.30  0.0
5F  4  3  0.00  3.10  1.10  1.30  0.0
    </PP_INPUTFILE>
  </PP_INFO>
    <!-- END OF HUMAN READABLE SECTION -->
  <PP_HEADER generated="Generated using 'atomic' code by A. Dal Corso  v.7.2" author="ADC" date="22Sep2023" comment="" element="Np" pseudo_type="USPP" relativistic="scalar" is_ultrasoft="true" is_paw="false" is_coulomb="false" has_so="false" has_wfc="false" has_gipaw="false" paw_as_gipaw="false" core_correction="true" functional="PBESOL" z_valence="15.000000000000000" total_psenergy="-203.68905720596990" wfc_cutoff="110.92101176319416" rho_cutoff="555.00342616323826" l_max="3" l_max_rho="6" l_local="-1" mesh_size="1293" number_of_wfc="5" number_of_proj="8"/>
  <PP_MESH mesh="1293" dx="1.2500000000000001E-002" xmin="-7.0000000000000000" rmax="100.00000000000000" zmesh="93.000000000000000">
    <PP_R>
   9.805182425317379E-06   9.928516437301315E-06   1.005340180017830E-05
   1.017985802754037E-05   1.030790487843032E-05   1.043756236042913E-05
   1.056885073278214E-05   1.070179050956464E-05   1.083640246288721E-05
   1.097270762614145E-05   1.111072729728642E-05   1.125048304217654E-05
   1.139199669793129E-05   1.153529037634728E-05   1.168038646735331E-05
   1.182730764250880E-05   1.197607685854627E-05   1.212671736095841E-05
   1.227925268763019E-05   1.243370667251675E-05   1.259010344936747E-05
   1.274846745549691E-05   1.290882343560323E-05   1.307119644563457E-05
   1.323561185670410E-05   1.340209535905430E-05   1.357067296607112E-05
   1.374137101834865E-05   1.391421618780482E-05   1.408923548184903E-05
   1.426645624760206E-05   1.444590617616911E-05   1.462761330696660E-05
   1.481160603210341E-05   1.499791310081719E-05   1.518656362396647E-05
   1.537758707857930E-05   1.557101331245909E-05   1.576687254884842E-05
   1.596519539115147E-05   1.616601282771583E-05   1.636935623667453E-05
   1.657525739084893E-05   1.678374846271325E-05   1.699486202942169E-05
   1.720863107789854E-05   1.742508900999255E-05   1.764426964769598E-05
   1.786620723842940E-05   1.809093646039292E-05   1.831849242798467E-05
   1.854891069728755E-05   1.878222727162494E-05   1.901847860718624E-05
   1.925770161872333E-05   1.949993368531844E-05   1.974521265622481E-05
   1.999357685678066E-05   2.024506509439761E-05   2.049971666462448E-05
   2.075757135728720E-05   2.101866946270610E-05   2.128305177799136E-05
   2.155075961341762E-05   2.182183479887886E-05   2.209631969042429E-05
   2.237425717687666E-05   2.265569068653370E-05   2.294066419395385E-05
   2.322922222682747E-05   2.352140987293425E-05   2.381727278718836E-05
   2.411685719877208E-05   2.442020991835921E-05   2.472737834542942E-05
   2.503841047567434E-05   2.535335490849713E-05   2.567226085460617E-05
   2.599517814370434E-05   2.632215723227508E-05   2.665324921146622E-05
   2.698850581507310E-05   2.732797942762213E-05   2.767172309255591E-05
   2.801979052052149E-05   2.837223609776260E-05   2.872911489461775E-05
   2.909048267412502E-05   2.945639590073515E-05   2.982691174913429E-05
   3.020208811317756E-05   3.058198361493513E-05   3.096665761385207E-05
   3.135617021602331E-05   3.175058228358545E-05   3.214995544422646E-05
   3.255435210081522E-05   3.296383544115208E-05   3.337846944784203E-05
   3.379831890829226E-05   3.422344942483513E-05   3.465392742497878E-05
   3.508982017178654E-05   3.553119577438690E-05   3.597812319861583E-05
   3.643067227779260E-05   3.688891372363155E-05   3.735291913729090E-05
   3.782276102056052E-05   3.829851278719064E-05   3.878024877436269E-05
   3.926804425430477E-05   3.976197544605303E-05   4.026211952736108E-05
   4.076855464675923E-05   4.128135993576520E-05   4.180061552124872E-05
   4.232640253795143E-05   4.285880314116442E-05   4.339790051956514E-05
   4.394377890821577E-05   4.449652360172512E-05   4.505622096757612E-05
   4.562295845962087E-05   4.619682463174559E-05   4.677790915170720E-05
   4.736630281514415E-05   4.796209755976346E-05   4.856538647970609E-05
   4.917626384009326E-05   4.979482509175533E-05   5.042116688614635E-05
   5.105538709044600E-05   5.169758480285146E-05   5.234786036806197E-05
   5.300631539295755E-05   5.367305276247545E-05   5.434817665568618E-05
   5.503179256207152E-05   5.572400729800779E-05   5.642492902345575E-05
   5.713466725886102E-05   5.785333290226689E-05   5.858103824664220E-05
   5.931789699742765E-05   6.006402429030214E-05   6.081953670917321E-05
   6.158455230439339E-05   6.235919061120582E-05   6.314357266842207E-05
   6.393782103733435E-05   6.474205982086622E-05   6.555641468296385E-05
   6.638101286823119E-05   6.721598322181249E-05   6.806145620952416E-05
   6.891756393824067E-05   6.978444017653642E-05   7.066222037558724E-05
   7.155104169033520E-05   7.245104300091900E-05   7.336236493437449E-05
   7.428514988660787E-05   7.521954204464528E-05   7.616568740916263E-05
   7.712373381729783E-05   7.809383096575152E-05   7.907613043417674E-05
   8.007078570886385E-05   8.107795220672339E-05   8.209778729956947E-05
   8.313045033871044E-05   8.417610267984702E-05   8.523490770828488E-05
   8.630703086446410E-05   8.739263966980872E-05   8.849190375290355E-05
   8.960499487599794E-05   9.073208696184442E-05   9.187335612087470E-05
   9.302898067871650E-05   9.419914120405837E-05   9.538402053686299E-05
   9.658380381693672E-05   9.779867851285833E-05   9.902883445127033E-05
   1.002744638465411E-04   1.015357613307980E-04   1.028129239843388E-04
   1.041061513664268E-04   1.054156455464713E-04   1.067416111356023E-04
   1.080842553186407E-04   1.094437878864717E-04   1.108204212688253E-04
   1.122143705674678E-04   1.136258535898135E-04   1.150550908829562E-04
   1.165023057681307E-04   1.179677243756074E-04   1.194515756800248E-04
   1.209540915361684E-04   1.224755067151976E-04   1.240160589413293E-04
   1.255759889289834E-04   1.271555404203937E-04   1.287549602236948E-04
   1.303744982514849E-04   1.320144075598756E-04   1.336749443880333E-04
   1.353563681982150E-04   1.370589417163126E-04   1.387829309729019E-04
   1.405286053448116E-04   1.422962375972144E-04   1.440861039262455E-04
   1.458984840021606E-04   1.477336610130338E-04   1.495919217090067E-04
   1.514735564470939E-04   1.533788592365511E-04   1.553081277848159E-04
   1.572616635440239E-04   1.592397717581118E-04   1.612427615105131E-04
   1.632709457724510E-04   1.653246414518434E-04   1.674041694428182E-04
   1.695098546758547E-04   1.716420261685551E-04   1.738010170770524E-04
   1.759871647480691E-04   1.782008107716264E-04   1.804423010344189E-04
   1.827119857738611E-04   1.850102196328106E-04   1.873373617149840E-04
   1.896937756410663E-04   1.920798296055273E-04   1.944958964341539E-04
   1.969423536423030E-04   1.994195834938912E-04   2.019279730611227E-04
   2.044679142849705E-04   2.070398040364186E-04   2.096440441784731E-04
   2.122810416289546E-04   2.149512084240799E-04   2.176549617828429E-04
   2.203927241722071E-04   2.231649233731155E-04   2.259719925473337E-04
   2.288143703051309E-04   2.316925007738148E-04   2.346068336671266E-04
   2.375578243555101E-04   2.405459339372645E-04   2.435716293105911E-04
   2.466353832465477E-04   2.497376744629202E-04   2.528789876990227E-04
   2.560598137914396E-04   2.592806497507191E-04   2.625419988390326E-04
   2.658443706488107E-04   2.691882811823672E-04   2.725742529325263E-04
   2.760028149642627E-04   2.794745029973693E-04   2.829898594901647E-04
   2.865494337242525E-04   2.901537818903493E-04   2.938034671751889E-04
   2.974990598495224E-04   3.012411373572239E-04   3.050302844055172E-04
   3.088670930563380E-04   3.127521628188438E-04   3.166861007430892E-04
   3.206695215148786E-04   3.247030475518119E-04   3.287873091005387E-04
   3.329229443352354E-04   3.371105994573214E-04   3.413509287964296E-04
   3.456445949126459E-04   3.499922687000369E-04   3.543946294914771E-04
   3.588523651647966E-04   3.633661722502641E-04   3.679367560394197E-04
   3.725648306952798E-04   3.772511193639252E-04   3.819963542874943E-04
   3.868012769185986E-04   3.916666380361746E-04   3.965931978627959E-04
   4.015817261834583E-04   4.066330024658611E-04   4.117478159822007E-04
   4.169269659324947E-04   4.221712615694604E-04   4.274815223249604E-04
   4.328585779380414E-04   4.383032685845831E-04   4.438164450085758E-04
   4.493989686550529E-04   4.550517118046916E-04   4.607755577101096E-04
   4.665714007338750E-04   4.724401464882518E-04   4.783827119767046E-04
   4.844000257371809E-04   4.904930279871979E-04   4.966626707707540E-04
   5.029099181070859E-04   5.092357461413004E-04   5.156411432968975E-04
   5.221271104302147E-04   5.286946609868127E-04   5.353448211598274E-04
   5.420786300503158E-04   5.488971398296174E-04   5.558014159037572E-04
   5.627925370799181E-04   5.698715957350086E-04   5.770396979863456E-04
   5.842979638644892E-04   5.916475274882501E-04   5.990895372418967E-04
   6.066251559545951E-04   6.142555610820999E-04   6.219819448907364E-04
   6.298055146436942E-04   6.377274927896636E-04   6.457491171538488E-04
   6.538716411313761E-04   6.620963338831423E-04   6.704244805341232E-04
   6.788573823741761E-04   6.873963570613717E-04   6.960427388278769E-04
   7.047978786884339E-04   7.136631446514585E-04   7.226399219327931E-04
   7.317296131721527E-04   7.409336386522858E-04   7.502534365208996E-04
   7.596904630153723E-04   7.692461926902927E-04   7.789221186478651E-04
   7.887197527712057E-04   7.986406259605796E-04   8.086862883726068E-04
   8.188583096624766E-04   8.291582792292120E-04   8.395878064640126E-04
   8.501485210017278E-04   8.608420729754901E-04   8.716701332745510E-04
   8.826343938053634E-04   8.937365677559416E-04   9.049783898635528E-04
   9.163616166857728E-04   9.278880268749516E-04   9.395594214561332E-04
   9.513776241084657E-04   9.633444814501582E-04   9.754618633270167E-04
   9.877316631046117E-04   1.000155797964124E-03   1.012736209201900E-03
   1.025474862532792E-03   1.038373748397300E-03   1.051434882272581E-03
   1.064660304987380E-03   1.078052083040900E-03   1.091612308925711E-03
   1.105343101454693E-03   1.119246606092114E-03   1.133324995288864E-03
   1.147580468821895E-03   1.162015254137950E-03   1.176631606701602E-03
   1.191431810347677E-03   1.206418177638105E-03   1.221593050223266E-03
   1.236958799207875E-03   1.252517825521473E-03   1.268272560293576E-03
   1.284225465233544E-03   1.300379033015233E-03   1.316735787666472E-03
   1.333298284963455E-03   1.350069112830079E-03   1.367050891742318E-03
   1.384246275137680E-03   1.401657949829803E-03   1.419288636428283E-03
   1.437141089763769E-03   1.455218099318416E-03   1.473522489661747E-03
   1.492057120891992E-03   1.510824889082991E-03   1.529828726736706E-03
   1.549071603241433E-03   1.568556525335779E-03   1.588286537578461E-03
   1.608264722824034E-03   1.628494202704588E-03   1.648978138117510E-03
   1.669719729719387E-03   1.690722218426104E-03   1.711988885919251E-03
   1.733523055158891E-03   1.755328090902779E-03   1.777407400232113E-03
   1.799764433083899E-03   1.822402682790002E-03   1.845325686622998E-03
   1.868537026348872E-03   1.892040328786683E-03   1.915839266375253E-03
   1.939937557746999E-03   1.964338968308976E-03   1.989047310831229E-03
   2.014066446042549E-03   2.039400283233713E-03   2.065052780868325E-03
   2.091027947201330E-03   2.117329840905313E-03   2.143962571704679E-03
   2.170930301017801E-03   2.198237242607249E-03   2.225887663238202E-03
   2.253885883345138E-03   2.282236277706915E-03   2.310943276130330E-03
   2.340011364142290E-03   2.369445083690688E-03   2.399249033854084E-03
   2.429427871560332E-03   2.459986312314220E-03   2.490929130934289E-03
   2.522261162298901E-03   2.553987302101700E-03   2.586112507616583E-03
   2.618641798472267E-03   2.651580257436630E-03   2.684933031210900E-03
   2.718705331233833E-03   2.752902434496023E-03   2.787529684364426E-03
   2.822592491417284E-03   2.858096334289535E-03   2.894046760528859E-03
   2.930449387462502E-03   2.967309903074981E-03   3.004634066896854E-03
   3.042427710904656E-03   3.080696740432151E-03   3.119447135093069E-03
   3.158684949715408E-03   3.198416315287535E-03   3.238647439916154E-03
   3.279384609796336E-03   3.320634190193762E-03   3.362402626439289E-03
   3.404696444936058E-03   3.447522254179257E-03   3.490886745788707E-03
   3.534796695554454E-03   3.579258964495480E-03   3.624280499931769E-03
   3.669868336569827E-03   3.716029597601876E-03   3.762771495818876E-03
   3.810101334737514E-03   3.858026509741417E-03   3.906554509236683E-03
   3.955692915821960E-03   4.005449407473259E-03   4.055831758743625E-03
   4.106847841977948E-03   4.158505628543027E-03   4.210813190073107E-03
   4.263778699731107E-03   4.317410433485665E-03   4.371716771404294E-03
   4.426706198962783E-03   4.482387308371058E-03   4.538768799915759E-03
   4.595859483319643E-03   4.653668279118145E-03   4.712204220053222E-03
   4.771476452484730E-03   4.831494237819588E-03   4.892266953958857E-03
   4.953804096763076E-03   5.016115281536007E-03   5.079210244527040E-03
   5.143098844452518E-03   5.207791064036157E-03   5.273297011568885E-03
   5.339626922488278E-03   5.406791160977859E-03   5.474800221586551E-03
   5.543664730868434E-03   5.613395449043187E-03   5.684003271677395E-03
   5.755499231386992E-03   5.827894499561153E-03   5.901200388107813E-03
   5.975428351221201E-03   6.050589987171571E-03   6.126697040117451E-03
   6.203761401940718E-03   6.281795114104688E-03   6.360810369535650E-03
   6.440819514528019E-03   6.521835050673478E-03   6.603869636814386E-03
   6.686936091021724E-03   6.771047392597961E-03   6.856216684105095E-03
   6.942457273418194E-03   7.029782635804811E-03   7.118206416030476E-03
   7.207742430490749E-03   7.298404669370052E-03   7.390207298827658E-03
   7.483164663211205E-03   7.577291287297996E-03   7.672601878564547E-03
   7.769111329484652E-03   7.866834719856363E-03   7.965787319158257E-03
   8.065984588935291E-03   8.167442185214719E-03   8.270175960952378E-03
   8.374201968509730E-03   8.479536462162115E-03   8.586195900638466E-03
   8.694196949693041E-03   8.803556484709488E-03   8.914291593337639E-03
   9.026419578163521E-03   9.139957959412887E-03   9.254924477688798E-03
   9.371337096743640E-03   9.489214006285973E-03   9.608573624822751E-03
   9.729434602537203E-03   9.851815824202990E-03   9.975736412134985E-03
   1.010121572917716E-02   1.022827338172811E-02   1.035692922280454E-02
   1.048720335514337E-02   1.061911613434282E-02   1.075268817204301E-02
   1.088794033914661E-02   1.102489376907989E-02   1.116356986109490E-02
   1.130399028361317E-02   1.144617697761139E-02   1.159015216004980E-02
   1.173593832734357E-02   1.188355825887794E-02   1.203303502056754E-02
   1.218439196846050E-02   1.233765275238788E-02   1.249284131965896E-02
   1.264998191880313E-02   1.280909910335870E-02   1.297021773570947E-02
   1.313336299096957E-02   1.329856036091705E-02   1.346583565797704E-02
   1.363521501925506E-02   1.380672491062087E-02   1.398039213084399E-02
   1.415624381578088E-02   1.433430744261509E-02   1.451461083415058E-02
   1.469718216315910E-02   1.488204995678228E-02   1.506924310098896E-02
   1.525879084508880E-02   1.545072280630242E-02   1.564506897438926E-02
   1.584185971633350E-02   1.604112578108893E-02   1.624289830438359E-02
   1.644720881358473E-02   1.665408923262509E-02   1.686357188699106E-02
   1.707568950877359E-02   1.729047524178262E-02   1.750796264672592E-02
   1.772818570645299E-02   1.795117883126498E-02   1.817697686429131E-02
   1.840561508693404E-02   1.863712922438061E-02   1.887155545118601E-02
   1.910893039692515E-02   1.934929115191623E-02   1.959267527301623E-02
   1.983912078948926E-02   2.008866620894863E-02   2.034135052337387E-02
   2.059721321520319E-02   2.085629426350274E-02   2.111863415021343E-02
   2.138427386647626E-02   2.165325491903739E-02   2.192561933673350E-02
   2.220140967705901E-02   2.248066903281567E-02   2.276344103884597E-02
   2.304976987885118E-02   2.333970029229509E-02   2.363327758139466E-02
   2.393054761819859E-02   2.423155685175493E-02   2.453635231536886E-02
   2.484498163395166E-02   2.515749303146228E-02   2.547393533844238E-02
   2.579435799964622E-02   2.611881108176654E-02   2.644734528125754E-02
   2.678001193225626E-02   2.711686301460376E-02   2.745795116196696E-02
   2.780332967006287E-02   2.815305250498604E-02   2.850717431164095E-02
   2.886575042228035E-02   2.922883686515102E-02   2.959649037324847E-02
   2.996876839318120E-02   3.034572909414731E-02   3.072743137702329E-02
   3.111393488356732E-02   3.150530000573876E-02   3.190158789513407E-02
   3.230286047254228E-02   3.270918043762006E-02   3.312061127868850E-02
   3.353721728265371E-02   3.395906354505128E-02   3.438621598021801E-02
   3.481874133159100E-02   3.525670718213628E-02   3.570018196490915E-02
   3.614923497374656E-02   3.660393637409481E-02   3.706435721397287E-02
   3.753056943507356E-02   3.800264588400509E-02   3.848066032367291E-02
   3.896468744480582E-02   3.945480287762631E-02   3.995108320366778E-02
   4.045360596774102E-02   4.096244969005013E-02   4.147769387846208E-02
   4.199941904092962E-02   4.252770669807072E-02   4.306263939590677E-02
   4.360430071875996E-02   4.415277530231410E-02   4.470814884683882E-02
   4.527050813058021E-02   4.583994102332067E-02   4.641653650010800E-02
   4.700038465515868E-02   4.759157671593481E-02   4.819020505739854E-02
   4.879636321644631E-02   4.941014590652355E-02   5.003164903242439E-02
   5.066096970527682E-02   5.129820625771616E-02   5.194345825925036E-02
   5.259682653181727E-02   5.325841316553885E-02   5.392832153467272E-02
   5.460665631376432E-02   5.529352349400313E-02   5.598903039978334E-02
   5.669328570547408E-02   5.740639945239978E-02   5.812848306603405E-02
   5.885964937341081E-02   5.960001262075294E-02   6.034968849132424E-02
   6.110879412350482E-02   6.187744812909388E-02   6.265577061184387E-02
   6.344388318622600E-02   6.424190899643356E-02   6.504997273562312E-02
   6.586820066539770E-02   6.669672063553625E-02   6.753566210396952E-02
   6.838515615700892E-02   6.924533552982864E-02   7.011633462720551E-02
   7.099828954452080E-02   7.189133808902443E-02   7.279561980136853E-02
   7.371127597741056E-02   7.463844969029071E-02   7.557728581278818E-02
   7.652793103995696E-02   7.749053391204801E-02   7.846524483771868E-02
   7.945221611753388E-02   8.045160196776437E-02   8.146355854448224E-02
   8.248824396796159E-02   8.352581834738471E-02   8.457644380585905E-02
   8.564028450575033E-02   8.671750667433199E-02   8.780827862975964E-02
   8.891277080737069E-02   9.003115578631468E-02   9.116360831652023E-02
   9.231030534599889E-02   9.347142604849464E-02   9.464715185147970E-02
   9.583766646450255E-02   9.704315590789388E-02   9.826380854183148E-02
   9.949981509577301E-02   1.007513686982574E-01   1.020186649070809E-01
   1.033019017398550E-01   1.046012797049450E-01   1.059170018328019E-01
   1.072492737076852E-01   1.085983034997855E-01   1.099643019977528E-01
   1.113474826416311E-01   1.127480615562104E-01   1.141662575847958E-01
   1.156022923234017E-01   1.170563901553779E-01   1.185287782864689E-01
   1.200196867803157E-01   1.215293485944042E-01   1.230579996164637E-01
   1.246058787013269E-01   1.261732277082496E-01   1.277602915387032E-01
   1.293673181746402E-01   1.309945587172416E-01   1.326422674261534E-01
   1.343107017592130E-01   1.360001224126798E-01   1.377107933619682E-01
   1.394429819028939E-01   1.411969586934412E-01   1.429729977960515E-01
   1.447713767204485E-01   1.465923764669975E-01   1.484362815706139E-01
   1.503033801452220E-01   1.521939639287721E-01   1.541083283288274E-01
   1.560467724687196E-01   1.580095992342897E-01   1.599971153212134E-01
   1.620096312829225E-01   1.640474615791310E-01   1.661109246249680E-01
   1.682003428407330E-01   1.703160427022735E-01   1.724583547919965E-01
   1.746276138505254E-01   1.768241588290007E-01   1.790483329420446E-01
   1.813004837213876E-01   1.835809630701705E-01   1.858901273179319E-01
   1.882283372762827E-01   1.905959582952865E-01   1.929933603205447E-01
   1.954209179510007E-01   1.978790104974739E-01   2.003680220419249E-01
   2.028883414974719E-01   2.054403626691577E-01   2.080244843154819E-01
   2.106411102107099E-01   2.132906492079606E-01   2.159735153030932E-01
   2.186901276993938E-01   2.214409108730757E-01   2.242262946396068E-01
   2.270467142208669E-01   2.299026103131542E-01   2.327944291560438E-01
   2.357226226021126E-01   2.386876481875448E-01   2.416899692036196E-01
   2.447300547691046E-01   2.478083799035548E-01   2.509254256015346E-01
   2.540816789077769E-01   2.572776329932812E-01   2.605137872323761E-01
   2.637906472807460E-01   2.671087251544392E-01   2.704685393098752E-01
   2.738706147248505E-01   2.773154829805706E-01   2.808036823447096E-01
   2.843357578555140E-01   2.879122614069694E-01   2.915337518350313E-01
   2.952007950049473E-01   2.989139638996741E-01   3.026738387094049E-01
   3.064810069222292E-01   3.103360634159251E-01   3.142396105509134E-01
   3.181922582643761E-01   3.221946241655594E-01   3.262473336322791E-01
   3.303510199086337E-01   3.345063242039533E-01   3.387138957929889E-01
   3.429743921173602E-01   3.472884788882873E-01   3.516568301906040E-01
   3.560801285880894E-01   3.605590652301179E-01   3.650943399596511E-01
   3.696866614225939E-01   3.743367471785167E-01   3.790453238127800E-01
   3.838131270500635E-01   3.886409018693219E-01   3.935294026201940E-01
   3.984793931408666E-01   4.034916468774301E-01   4.085669470047291E-01
   4.137060865487326E-01   4.189098685104518E-01   4.241791059914038E-01
   4.295146223206660E-01   4.349172511835208E-01   4.403878367517183E-01
   4.459272338153851E-01   4.515363079165807E-01   4.572159354845460E-01
   4.629670039726447E-01   4.687904119970270E-01   4.746870694770461E-01
   4.806578977774286E-01   4.867038298522448E-01   4.928258103906830E-01
   4.990247959646557E-01   5.053017551782726E-01   5.116576688191796E-01
   5.180935300118152E-01   5.246103443725856E-01   5.312091301669912E-01
   5.378909184687399E-01   5.446567533208458E-01   5.515076918987710E-01
   5.584448046756074E-01   5.654691755893382E-01   5.725819022122117E-01
   5.797840959222319E-01   5.870768820768197E-01   5.944614001886503E-01
   6.019388041037006E-01   6.095102621815470E-01   6.171769574779166E-01
   6.249400879295482E-01   6.328008665413706E-01   6.407605215760321E-01
   6.488202967458285E-01   6.569814514070255E-01   6.652452607566439E-01
   6.736130160317088E-01   6.820860247110037E-01   6.906656107193758E-01
   6.993531146345915E-01   7.081498938968139E-01   7.170573230207012E-01
   7.260767938101736E-01   7.352097155758949E-01   7.444575153554693E-01
   7.538216381364286E-01   7.633035470820101E-01   7.729047237597749E-01
   7.826266683731156E-01   7.924708999956542E-01   8.024389568086119E-01
   8.125323963411472E-01   8.227527957137193E-01   8.331017518845265E-01
   8.435808818990231E-01   8.541918231425950E-01   8.649362335964013E-01
   8.758157920964316E-01   8.868321985958399E-01   8.979871744305513E-01
   9.092824625882365E-01   9.207198279806522E-01   9.323010577194075E-01
   9.440279613952142E-01   9.559023713606272E-01   9.679261430163636E-01
   9.801011551012091E-01   9.924293099855687E-01   1.004912533968728E+00
   1.017552777579830E+00   1.030352015882654E+00   1.043312248784231E+00
   1.056435501347313E+00   1.069723824106817E+00   1.083179293390206E+00
   1.096804011641932E+00   1.110600107751945E+00   1.124569737388325E+00
   1.138715083334129E+00   1.153038355828436E+00   1.167541792911716E+00
   1.182227660775523E+00   1.197098254116584E+00   1.212155896495369E+00
   1.227402940699129E+00   1.242841769109545E+00   1.258474794074967E+00
   1.274304458287348E+00   1.290333235163931E+00   1.306563629233709E+00
   1.322998176528780E+00   1.339639444980596E+00   1.356490034821206E+00
   1.373552578989560E+00   1.390829743542892E+00   1.408324228073318E+00
   1.426038766129641E+00   1.443976125644468E+00   1.462139109366722E+00
   1.480530555299556E+00   1.499153337143819E+00   1.518010364747065E+00
   1.537104584558215E+00   1.556438980087969E+00   1.576016572374959E+00
   1.595840420457813E+00   1.615913621853129E+00   1.636239313039458E+00
   1.656820669947408E+00   1.677660908455861E+00   1.698763284894489E+00
   1.720131096552545E+00   1.741767682194068E+00   1.763676422579591E+00
   1.785860740994367E+00   1.808324103783284E+00   1.831070020892485E+00
   1.854102046417789E+00   1.877423779160048E+00   1.901038863187446E+00
   1.924950988404911E+00   1.949163891130660E+00   1.973681354680000E+00
   1.998507209956498E+00   2.023645336050543E+00   2.049099660845484E+00
   2.074874161631361E+00   2.100972865726354E+00   2.127399851106083E+00
   2.154159247040772E+00   2.181255234740483E+00   2.208692048008423E+00
   2.236473973902480E+00   2.264605353405105E+00   2.293090582101570E+00
   2.321934110866819E+00   2.351140446560905E+00   2.380714152733195E+00
   2.410659850335455E+00   2.440982218443851E+00   2.471685994990095E+00
   2.502775977501745E+00   2.534257023851813E+00   2.566134053017848E+00
   2.598412045850503E+00   2.631096045851832E+00   2.664191159963337E+00
   2.697702559363920E+00   2.731635480277927E+00   2.765995224793279E+00
   2.800787161689966E+00   2.836016727278917E+00   2.871689426251421E+00
   2.907810832539279E+00   2.944386590185705E+00   2.981422414227247E+00
   3.018924091586769E+00   3.056897481977644E+00   3.095348518819391E+00
   3.134283210164733E+00   3.173707639638412E+00   3.213627967387748E+00
   3.254050431045159E+00   3.294981346702845E+00   3.336427109899639E+00
   3.378394196620368E+00   3.420889164307721E+00   3.463918652886845E+00
   3.507489385802885E+00   3.551608171071494E+00   3.596281902342635E+00
   3.641517559977716E+00   3.687322212140262E+00   3.733703015900377E+00
   3.780667218352998E+00   3.828222157750313E+00   3.876375264648363E+00
   3.925134063068052E+00   3.974506171670852E+00   4.024499304949163E+00
   4.075121274431780E+00   4.126379989904432E+00   4.178283460645686E+00
   4.230839796678456E+00   4.284057210037161E+00   4.337944016050916E+00
   4.392508634642802E+00   4.447759591645471E+00   4.503705520133379E+00
   4.560355161771662E+00   4.617717368182086E+00   4.675801102326115E+00
   4.734615439905364E+00   4.794169570779759E+00   4.854472800403393E+00
   4.915534551278591E+00   4.977364364428167E+00   5.039971900886204E+00
   5.103366943207666E+00   5.167559396996875E+00   5.232559292455346E+00
   5.298376785948998E+00   5.365022161595076E+00   5.432505832869134E+00
   5.500838344232088E+00   5.570030372777871E+00   5.640092729901725E+00
   5.711036362989474E+00   5.782872357128144E+00   5.855611936837951E+00
   5.929266467826223E+00   6.003847458763290E+00   6.079366563080701E+00
   6.155835580792171E+00   6.233266460337274E+00   6.311671300448483E+00
   6.391062352041594E+00   6.471452020129917E+00   6.552852865762667E+00
   6.635277607987566E+00   6.718739125838289E+00   6.803250460346818E+00
   6.888824816581084E+00   6.975475565708376E+00   7.063216247084513E+00
   7.152060570369482E+00   7.242022417669564E+00   7.333115845706403E+00
   7.425355088013488E+00   7.518754557160062E+00   7.613328847003219E+00
   7.709092734968171E+00   7.806061184357219E+00   7.904249346687892E+00
   8.003672564060290E+00   8.104346371554422E+00   8.206286499657544E+00
   8.309508876722042E+00   8.414029631454373E+00   8.519865095435076E+00
   8.627031805670741E+00   8.735546507177892E+00   8.845426155599380E+00
   8.956687919853858E+00   9.069349184818318E+00   9.183427554044640E+00
   9.298940852510126E+00   9.415907129402644E+00   9.534344660940960E+00
   9.654271953230305E+00   9.775707745154111E+00   9.898671011301946E+00
   1.002318096493428E+01   1.014925706098473E+01   1.027691899909976E+01
   1.040618672671695E+01   1.053708044218177E+01   1.066962059790351E+01
   1.080382790355120E+01   1.093972332928937E+01   1.107732810905477E+01
   1.121666374387424E+01   1.135775200522414E+01   1.150061493843241E+01