<UPF version="2.0.1">
  <PP_INFO>
    Generated using "atomic" code by A. Dal Corso  v.7.2
    Author: ADC
    Generation date: 22Sep2023
    Pseudopotential type: USPP
    Element: Po
    Functional: PBESOL
    Suggested minimum cutoff for wavefunctions:  47. Ry
    Suggested minimum cutoff for charge density: 455. Ry
    The Pseudo was generated with a Scalar-Relativistic Calculation
    Local Potential by smoothing AE potential with Bessel fncs, cutoff radius:   1.9000
    Valence configuration: 
    nl pn  l   occ       Rcut    Rcut US       E pseu
    6S  1  0  2.00      1.700      1.900    -1.247420
    6P  2  1  4.00      2.000      2.100    -0.415200
    5D  3  2 10.00      0.900      1.600    -2.440462
    Generation configuration:
    6S  1  0  2.00      1.700      1.900    -1.247415
    6S  1  0  0.00      1.700      1.900     4.000000
    6P  2  1  4.00      2.000      2.100    -0.415199
    6P  2  1  0.00      2.000      2.100     6.000000
    5D  3  2 10.00      0.900      1.600    -2.440460
    5D  3  2  0.00      0.900      1.600     4.750000
    Pseudization used: troullier-martins
    <PP_INPUTFILE>
@input
title='Po',
zed=84.,
rel=1,
config='[Xe] 4f14 6s2 6p4 5d10',
iswitch=3,
dft='PBESOL'
/
@inputp
lpaw=.false.,
pseudotype=3,
file_pseudopw='Po.pbesol-dn-rrkjus_psl.1.0.0.UPF',
author='ADC',
lloc=-1,
rcloc=1.9,
which_augfun='PSQ',
rmatch_augfun_nc=.true.,
nlcc=.true.,
new_core_ps=.true.,
rcore=1.3,
tm=.true.
/
6
6S  1  0  2.00  0.00  1.70  1.90  0.0
6S  1  0  0.00  4.00  1.70  1.90  0.0
6P  2  1  4.00  0.00  2.00  2.10  0.0
6P  2  1  0.00  6.00  2.00  2.10  0.0
5D  3  2 10.00  0.00  0.90  1.60  0.0
5D  3  2  0.00  4.75  0.90  1.60  0.0
    </PP_INPUTFILE>
  </PP_INFO>
    <!-- END OF HUMAN READABLE SECTION -->
  <PP_HEADER generated="Generated using 'atomic' code by A. Dal Corso  v.7.2" author="ADC" date="22Sep2023" comment="" element="Po" pseudo_type="USPP" relativistic="scalar" is_ultrasoft="true" is_paw="false" is_coulomb="false" has_so="false" has_wfc="false" has_gipaw="false" paw_as_gipaw="false" core_correction="true" functional="PBESOL" z_valence="16.000000000000000" total_psenergy="-195.01014362326111" wfc_cutoff="46.623742281290511" rho_cutoff="455.04426320920300" l_max="2" l_max_rho="4" l_local="-1" mesh_size="1283" number_of_wfc="3" number_of_proj="6"/>
  <PP_MESH mesh="1283" dx="1.2500000000000001E-002" xmin="-7.0000000000000000" rmax="100.00000000000000" zmesh="84.000000000000000">
    <PP_R>
   1.085573768517281E-05   1.099228605558360E-05   1.113055199305455E-05
   1.127055710191969E-05   1.141232325826214E-05   1.155587261333225E-05
   1.170122759700879E-05   1.184841092130371E-05   1.199744558391084E-05
   1.214835487179946E-05   1.230116236485282E-05   1.245589193955260E-05
   1.261256777270964E-05   1.277121434524163E-05   1.293185644599831E-05
   1.309451917563474E-05   1.325922795053337E-05   1.342600850677538E-05
   1.359488690416199E-05   1.376588953028640E-05   1.393904310465684E-05
   1.411437468287158E-05   1.429191166084644E-05   1.447168177909541E-05
   1.465371312706525E-05   1.483803414752440E-05   1.502467364100732E-05
   1.521366077031458E-05   1.540502506506962E-05   1.559879642633286E-05
   1.579500513127371E-05   1.599368183790151E-05   1.619485758985588E-05
   1.639856382125735E-05   1.660483236161903E-05   1.681369544082002E-05
   1.702518569414136E-05   1.723933616736542E-05   1.745618032193932E-05
   1.767575204020342E-05   1.789808563068538E-05   1.812321583346109E-05
   1.835117782558274E-05   1.858200722657538E-05   1.881574010400258E-05
   1.905241297910196E-05   1.929206283249175E-05   1.953472710994912E-05
   1.978044372826112E-05   2.002925108114930E-05   2.028118804526874E-05
   2.053629398628265E-05   2.079460876501333E-05   2.105617274367049E-05
   2.132102679215797E-05   2.158921229445970E-05   2.186077115510604E-05
   2.213574580572144E-05   2.241417921165449E-05   2.269611487869139E-05
   2.298159685985368E-05   2.327066976228175E-05   2.356337875420472E-05
   2.385976957199808E-05   2.415988852733017E-05   2.446378251439832E-05
   2.477149901725630E-05   2.508308611723374E-05   2.539859250044890E-05
   2.571806746541612E-05   2.604156093074863E-05   2.636912344295853E-05
   2.670080618435480E-05   2.703666098104056E-05   2.737674031101114E-05
   2.772109731235374E-05   2.806978579155039E-05   2.842286023188540E-05
   2.878037580195837E-05   2.914238836430456E-05   2.950895448412332E-05
   2.988013143811665E-05   3.025597722343879E-05   3.063655056675833E-05
   3.102191093343451E-05   3.141211853680859E-05   3.180723434761251E-05
   3.220732010349555E-05   3.261243831867105E-05   3.302265229368439E-05
   3.343802612530372E-05   3.385862471653532E-05   3.428451378676480E-05
   3.471575988202581E-05   3.515243038539818E-05   3.559459352753643E-05
   3.604231839733114E-05   3.649567495270409E-05   3.695473403153939E-05
   3.741956736275215E-05   3.789024757749603E-05   3.836684822051222E-05
   3.884944376162081E-05   3.933810960735693E-05   3.983292211275324E-05
   4.033395859327038E-05   4.084129733687779E-05   4.135501761628635E-05
   4.187519970133486E-05   4.240192487153250E-05   4.293527542875869E-05
   4.347533471012314E-05   4.402218710098728E-05   4.457591804814977E-05
   4.513661407319771E-05   4.570436278602576E-05   4.627925289852536E-05
   4.686137423844623E-05   4.745081776343203E-05   4.804767557523284E-05
   4.865204093409603E-05   4.926400827333853E-05   4.988367321410214E-05
   5.051113258029453E-05   5.114648441371833E-05   5.178982798939011E-05
   5.244126383105245E-05   5.310089372688097E-05   5.376882074538888E-05
   5.444514925153182E-05   5.512998492301483E-05   5.582343476680489E-05
   5.652560713585092E-05   5.723661174601411E-05   5.795655969321147E-05
   5.868556347077443E-05   5.942373698702640E-05   6.017119558308112E-05
   6.092805605086489E-05   6.169443665136576E-05   6.247045713311172E-05
   6.325623875088185E-05   6.405190428465263E-05   6.485757805878243E-05
   6.567338596143776E-05   6.649945546426309E-05   6.733591564229890E-05
   6.818289719414982E-05   6.904053246240644E-05   6.990895545432443E-05
   7.078830186276303E-05   7.167870908738760E-05   7.258031625613855E-05
   7.349326424697025E-05   7.441769570986383E-05   7.535375508911604E-05
   7.630158864590932E-05   7.726134448116532E-05   7.823317255868587E-05
   7.921722472858540E-05   8.021365475101747E-05   8.122261832020033E-05
   8.224427308874443E-05   8.327877869228585E-05   8.432629677443007E-05
   8.538699101200832E-05   8.646102714065346E-05   8.754857298069567E-05
   8.864979846338498E-05   8.976487565744376E-05   9.089397879595192E-05
   9.203728430357226E-05   9.319497082411634E-05   9.436721924845827E-05
   9.555421274279953E-05   9.675613677728823E-05   9.797317915500036E-05
   9.920553004128344E-05   1.004533819934706E-04   1.017169299909684E-04
   1.029963714657218E-04   1.042919063330646E-04   1.056037370229555E-04
   1.069320685116085E-04   1.082771083535217E-04   1.096390667139064E-04
   1.110181564015277E-04   1.124145929019549E-04   1.138285944112322E-04
   1.152603818699725E-04   1.167101789978789E-04   1.181782123287025E-04
   1.196647112456379E-04   1.211699080171651E-04   1.226940378333422E-04
   1.242373388425536E-04   1.258000521887221E-04   1.273824220489872E-04
   1.289846956718589E-04   1.306071234158511E-04   1.322499587885989E-04
   1.339134584864722E-04   1.355978824346831E-04   1.373034938279003E-04
   1.390305591713744E-04   1.407793483225788E-04   1.425501345333765E-04
   1.443431944927155E-04   1.461588083698623E-04   1.479972598581797E-04
   1.498588362194524E-04   1.517438283287746E-04   1.536525307199985E-04
   1.555852416317557E-04   1.575422630540588E-04   1.595239007754861E-04
   1.615304644309635E-04   1.635622675501446E-04   1.656196276064002E-04
   1.677028660664254E-04   1.698123084404673E-04   1.719482843331890E-04
   1.741111274951693E-04   1.763011758750524E-04   1.785187716723538E-04
   1.807642613909279E-04   1.830379958931123E-04   1.853403304545487E-04
   1.876716248196963E-04   1.900322432580431E-04   1.924225546210223E-04
   1.948429323996479E-04   1.972937547828721E-04   1.997754047166781E-04
   2.022882699639177E-04   2.048327431648974E-04   2.074092218987323E-04
   2.100181087454662E-04   2.126598113489766E-04   2.153347424806704E-04
   2.180433201039783E-04   2.207859674396653E-04   2.235631130319572E-04
   2.263751908155030E-04   2.292226401831777E-04   2.321059060547380E-04
   2.350254389463426E-04   2.379816950409456E-04   2.409751362595761E-04
   2.440062303335150E-04   2.470754508773779E-04   2.501832774631194E-04
   2.533301956949664E-04   2.565166972852949E-04   2.597432801314616E-04
   2.630104483936005E-04   2.663187125734000E-04   2.696685895938687E-04
   2.730606028801063E-04   2.764952824410902E-04   2.799731649524894E-04
   2.834947938405224E-04   2.870607193668676E-04   2.906714987146433E-04
   2.943276960754690E-04   2.980298827376208E-04   3.017786371752970E-04
   3.055745451390051E-04   3.094181997470875E-04   3.133102015783966E-04
   3.172511587661367E-04   3.212416870928867E-04   3.252824100868163E-04
   3.293739591191140E-04   3.335169735026408E-04   3.377121005918226E-04
   3.419599958838028E-04   3.462613231208628E-04   3.506167543941344E-04
   3.550269702486156E-04   3.594926597895060E-04   3.640145207898821E-04
   3.685932597997249E-04   3.732295922563201E-04   3.779242425960471E-04
   3.826779443675723E-04   3.874914403464694E-04   3.923654826512781E-04
   3.973008328610248E-04   4.022982621342209E-04   4.073585513293575E-04
   4.124824911269170E-04   4.176708821529172E-04   4.229245351040115E-04
   4.282442708741627E-04   4.336309206829076E-04   4.390853262052383E-04
   4.446083397031145E-04   4.502008241586320E-04   4.558636534088650E-04
   4.615977122824049E-04   4.674038967376169E-04   4.732831140026347E-04
   4.792362827171173E-04   4.852643330757884E-04   4.913682069737803E-04
   4.975488581538085E-04   5.038072523551942E-04   5.101443674647642E-04
   5.165611936696473E-04   5.230587336119931E-04   5.296380025456371E-04
   5.363000284947359E-04   5.430458524143977E-04   5.498765283533347E-04
   5.567931236185593E-04   5.637967189421539E-04   5.708884086501366E-04
   5.780693008334521E-04   5.853405175211141E-04   5.927031948555232E-04
   6.001584832699925E-04   6.077075476685049E-04   6.153515676077311E-04
   6.230917374813379E-04   6.309292667066167E-04   6.388653799134540E-04
   6.469013171356844E-04   6.550383340048483E-04   6.632777019463857E-04
   6.716207083783018E-04   6.800686569123249E-04   6.886228675576010E-04
   6.972846769269471E-04   7.060554384456990E-04   7.149365225631898E-04
   7.239293169668806E-04   7.330352267991933E-04   7.422556748770650E-04
   7.515921019142663E-04   7.610459667465187E-04   7.706187465594352E-04
   7.803119371193376E-04   7.901270530069719E-04   8.000656278541638E-04
   8.101292145834547E-04   8.203193856507451E-04   8.306377332909960E-04
   8.410858697670194E-04   8.516654276213955E-04   8.623780599315649E-04
   8.732254405681207E-04   8.842092644563560E-04   8.953312478411004E-04
   9.065931285548849E-04   9.179966662894847E-04   9.295436428708710E-04
   9.412358625376273E-04   9.530751522228641E-04   9.650633618396813E-04
   9.772023645702238E-04   9.894940571583638E-04   1.001940360206076E-03
   1.014543218473534E-03   1.027304601182982E-03   1.040226502326433E-03
   1.053310940977230E-03   1.066559961605532E-03   1.079975634397768E-03
   1.093560055580106E-03   1.107315347745994E-03   1.121243660187818E-03
   1.135347169232734E-03   1.149628078582725E-03   1.164088619658929E-03
   1.178731051950313E-03   1.193557663366711E-03   1.208570770596322E-03
   1.223772719467696E-03   1.239165885316270E-03   1.254752673355528E-03
   1.270535519052812E-03   1.286516888509873E-03   1.302699278848202E-03
   1.319085218599214E-03   1.335677268099330E-03   1.352478019890045E-03
   1.369490099123005E-03   1.386716163970203E-03   1.404158906039316E-03
   1.421821050794281E-03   1.439705357981151E-03   1.457814622059309E-03
   1.476151672638111E-03   1.494719374919016E-03   1.513520630143281E-03
   1.532558376045288E-03   1.551835587311568E-03   1.571355276045598E-03
   1.591120492238458E-03   1.611134324245389E-03   1.631399899268363E-03
   1.651920383844706E-03   1.672698984341883E-03   1.693738947458496E-03
   1.715043560731587E-03   1.736616153050326E-03   1.758460095176153E-03
   1.780578800269466E-03   1.802975724422937E-03   1.825654367201530E-03
   1.848618272189322E-03   1.871871027543186E-03   1.895416266553456E-03
   1.919257668211629E-03   1.943398957785219E-03   1.967843907399840E-03
   1.992596336628602E-03   2.017660113088931E-03   2.043039153046891E-03
   2.068737422029109E-03   2.094758935442399E-03   2.121107759201173E-03
   2.147788010362748E-03   2.174803857770652E-03   2.202159522706003E-03
   2.229859279547108E-03   2.257907456437325E-03   2.286308435961360E-03
   2.315066655830044E-03   2.344186609573739E-03   2.373672847244466E-03
   2.403529976126851E-03   2.433762661458025E-03   2.464375627156581E-03
   2.495373656560688E-03   2.526761593175513E-03   2.558544341430008E-03
   2.590726867443250E-03   2.623314199800405E-03   2.656311430338450E-03
   2.689723714941796E-03   2.723556274347887E-03   2.757814394962963E-03
   2.792503429688069E-03   2.827628798755454E-03   2.863195990575502E-03
   2.899210562594295E-03   2.935678142161983E-03   2.972604427412068E-03
   3.009995188151743E-03   3.047856266763454E-03   3.086193579117757E-03
   3.125013115497707E-03   3.164320941534842E-03   3.204123199156951E-03
   3.244426107547770E-03   3.285235964118729E-03   3.326559145492946E-03
   3.368402108501584E-03   3.410771391192739E-03   3.453673613853040E-03
   3.497115480042059E-03   3.541103777639771E-03   3.585645379907170E-03
   3.630747246560229E-03   3.676416424857380E-03   3.722660050700642E-03
   3.769485349750636E-03   3.816899638555606E-03   3.864910325694640E-03
   3.913524912935288E-03   3.962750996405711E-03   4.012596267781601E-03
   4.063068515488023E-03   4.114175625916363E-03   4.165925584656612E-03
   4.218326477745105E-03   4.271386492927997E-03   4.325113920940613E-03
   4.379517156802885E-03   4.434604701131108E-03   4.490385161466155E-03
   4.546867253618442E-03   4.604059803029780E-03   4.661971746152369E-03
   4.720612131845154E-03   4.779990122787700E-03   4.840114996911897E-03
   4.900996148851652E-03   4.962643091410814E-03   5.025065457049590E-03
   5.088272999389605E-03   5.152275594737947E-03   5.217083243630352E-03
   5.282706072393808E-03   5.349154334728830E-03   5.416438413311592E-03
   5.484568821416263E-03   5.553556204557723E-03   5.623411342154936E-03
   5.694145149215287E-03   5.765768678040031E-03   5.838293119951266E-03
   5.911729807040593E-03   5.986090213939772E-03   6.061385959613682E-03
   6.137628809175765E-03   6.214830675726386E-03   6.293003622214259E-03
   6.372159863321313E-03   6.452311767371276E-03   6.533471858262222E-03
   6.615652817423472E-03   6.698867485797097E-03   6.783128865844322E-03
   6.868450123577223E-03   6.954844590615905E-03   7.042325766271612E-03
   7.130907319656021E-03   7.220603091817064E-03   7.311427097901642E-03
   7.403393529345480E-03   7.496516756090600E-03   7.590811328830640E-03
   7.686291981284429E-03   7.782973632498183E-03   7.880871389176598E-03
   7.980000548043329E-03   8.080376598231128E-03   8.182015223702051E-03
   8.284932305698120E-03   8.389143925222782E-03   8.494666365553606E-03
   8.601516114786580E-03   8.709709868412402E-03   8.819264531925214E-03
   8.930197223464073E-03   9.042525276487726E-03   9.156266242482988E-03
   9.271437893707201E-03   9.388058225965199E-03   9.506145461421159E-03
   9.625718051445867E-03   9.746794679499791E-03   9.869394264052386E-03
   9.993535961538184E-03   1.011923916934998E-02   1.024652352886974E-02
   1.037540892853760E-02   1.050591550695947E-02   1.063806365605376E-02
   1.077187402423762E-02   1.090736751965331E-02   1.104456531343516E-02
   1.118348884301757E-02   1.132415981548469E-02   1.146660021096217E-02
   1.161083228605158E-02   1.175687857730812E-02   1.190476190476190E-02
   1.205450537548374E-02   1.220613238719559E-02   1.235966663192649E-02
   1.251513209971458E-02   1.267255308235547E-02   1.283195417719800E-02
   1.299336029098752E-02   1.315679664375772E-02   1.332228877277121E-02
   1.348986253650984E-02   1.365954411871515E-02   1.383136003247957E-02
   1.400533712438918E-02   1.418150257871856E-02   1.435988392167834E-02
   1.454050902571631E-02   1.472340611387244E-02   1.490860376418887E-02
   1.509613091417524E-02   1.528601686533025E-02   1.547829128772013E-02
   1.567298422461455E-02   1.587012609718099E-02   1.606974770923814E-02
   1.627188025206900E-02   1.647655530929466E-02   1.668380486180921E-02
   1.689366129277688E-02   1.710615739269197E-02   1.732132636450240E-02
   1.753920182879781E-02   1.775981782906275E-02   1.798320883699611E-02
   1.820940975789738E-02   1.843845593612063E-02   1.867038316059725E-02
   1.890522767042790E-02   1.914302616054505E-02   1.938381578744656E-02
   1.962763417500153E-02   1.987451942032908E-02   2.012451009975109E-02
   2.037764527481983E-02   2.063396449842139E-02   2.089350782095593E-02
   2.115631579659570E-02   2.142242948962154E-02   2.169189048083940E-02
   2.196474087407739E-02   2.224102330276455E-02   2.252078093659250E-02
   2.280405748826067E-02   2.309089722030661E-02   2.338134495202200E-02
   2.367544606645586E-02   2.397324651750568E-02   2.427479283709781E-02
   2.458013214245819E-02   2.488931214347449E-02   2.520238115015089E-02
   2.551938808015666E-02   2.584038246646956E-02   2.616541446511551E-02
   2.649453486300559E-02   2.682779508587153E-02   2.716524720630124E-02
   2.750694395187506E-02   2.785293871340467E-02   2.820328555327550E-02
   2.855803921389402E-02   2.891725512624153E-02   2.928098941853513E-02
   2.964929892499800E-02   3.002224119473988E-02   3.039987450074913E-02
   3.078225784899818E-02   3.116945098766312E-02   3.156151441645962E-02
   3.195850939609610E-02   3.236049795784578E-02   3.276754291323937E-02
   3.317970786387919E-02   3.359705721137737E-02   3.401965616741864E-02
   3.444757076394954E-02   3.488086786349649E-02   3.531961516961272E-02
   3.576388123745752E-02   3.621373548450792E-02   3.666924820140513E-02
   3.713049056293804E-02   3.759753463916392E-02   3.807045340666994E-02
   3.854932075997575E-02   3.903421152307945E-02   3.952520146114942E-02
   4.002236729236227E-02   4.052578669989069E-02   4.103553834404140E-02
   4.155170187454573E-02   4.207435794300564E-02   4.260358821549500E-02
   4.313947538532072E-02   4.368210318594341E-02   4.423155640406076E-02
   4.478792089285612E-02   4.535128358541265E-02   4.592173250829730E-02
   4.649935679531494E-02   4.708424670143544E-02   4.767649361689678E-02
   4.827619008148424E-02   4.888342979899061E-02   4.949830765185727E-02
   5.012091971599952E-02   5.075136327581931E-02   5.138973683940529E-02
   5.203614015392567E-02   5.269067422121355E-02   5.335344131354839E-02
   5.402454498963699E-02   5.470409011079393E-02   5.539218285732701E-02
   5.608893074512791E-02   5.679444264247146E-02   5.750882878702718E-02
   5.823220080308341E-02   5.896467171898944E-02   5.970635598481622E-02
   6.045736949023907E-02   6.121782958264633E-02   6.198785508547441E-02
   6.276756631677488E-02   6.355708510801404E-02   6.435653482310913E-02
   6.516604037770482E-02   6.598572825869076E-02   6.681572654396613E-02
   6.765616492245176E-02   6.850717471435394E-02   6.936888889168429E-02
   7.024144209903593E-02   7.112497067462288E-02   7.201961267158274E-02
   7.292550787954746E-02   7.384279784648656E-02   7.477162590082341E-02
   7.571213717383130E-02   7.666447862231028E-02   7.762879905154896E-02
   7.860524913857660E-02   7.959398145570562E-02   8.059515049437230E-02
   8.160891268927599E-02   8.263542644282185E-02   8.367485214987262E-02
   8.472735222280948E-02   8.579309111691030E-02   8.687223535604567E-02
   8.796495355869823E-02   8.907141646431055E-02   9.019179695996249E-02
   9.132627010738605E-02   9.247501317031878E-02   9.363820564220109E-02
   9.481602927422357E-02   9.600866810372470E-02   9.721630848294817E-02
   9.843913910816041E-02   9.967735104913411E-02   1.009311377790045E-01
   1.022006952044988E-01   1.034862216965476E-01   1.047879181212811E-01
   1.061059878714135E-01   1.074406368980254E-01   1.087920737427420E-01
   1.101605095703201E-01   1.115461582016421E-01   1.129492361471253E-01
   1.143699626405537E-01   1.158085596733320E-01   1.172652520291736E-01
   1.187402673192229E-01   1.202338360176197E-01   1.217461914975120E-01
   1.232775700675202E-01   1.248282110086616E-01   1.263983566117382E-01
   1.279882522151947E-01   1.295981462434541E-01   1.312282902457334E-01
   1.328789389353496E-01   1.345503502295189E-01   1.362427852896562E-01
   1.379565085621834E-01   1.396917878198478E-01   1.414488942035642E-01
   1.432281022647802E-01   1.450296900083747E-01   1.468539389360984E-01
   1.487011340905573E-01   1.505715640997526E-01   1.524655212221791E-01
   1.543833013924897E-01   1.563252042677384E-01   1.582915332741999E-01
   1.602825956547823E-01   1.622987025170329E-01   1.643401688817511E-01
   1.664073137322101E-01   1.685004600639977E-01   1.706199349354875E-01
   1.727660695189396E-01   1.749391991522493E-01   1.771396633913434E-01
   1.793678060632356E-01   1.816239753197521E-01   1.839085236919289E-01
   1.862218081450973E-01   1.885641901346599E-01   1.909360356625676E-01
   1.933377153345102E-01   1.957696044178222E-01   1.982320829001208E-01
   2.007255355486791E-01   2.032503519705460E-01   2.058069266734246E-01
   2.083956591273130E-01   2.110169538269243E-01   2.136712203548888E-01
   2.163588734457508E-01   2.190803330507747E-01   2.218360244035597E-01
   2.246263780864867E-01   2.274518300979960E-01   2.303128219207121E-01
   2.332098005904288E-01   2.361432187659563E-01   2.391135347998532E-01
   2.421212128100432E-01   2.451667227523338E-01   2.482505404938504E-01
   2.513731478873884E-01   2.545350328467065E-01   2.577366894227628E-01
   2.609786178809104E-01   2.642613247790674E-01   2.675853230468646E-01
   2.709511320657944E-01   2.743592777503643E-01   2.778102926302705E-01
   2.813047159336101E-01   2.848430936711328E-01   2.884259787215593E-01
   2.920539309179687E-01   2.957275171352720E-01   2.994473113787904E-01
   3.032138948739416E-01   3.070278561570602E-01   3.108897911673570E-01
   3.148003033400333E-01   3.187600037005733E-01   3.227695109602132E-01
   3.268294516126202E-01   3.309404600317820E-01   3.351031785711268E-01
   3.393182576638966E-01   3.435863559247742E-01   3.479081402527969E-01
   3.522842859355593E-01   3.567154767547265E-01   3.612024050928805E-01
   3.657457720417016E-01   3.703462875115198E-01   3.750046703422377E-01
   3.797216484156488E-01   3.844979587691753E-01   3.893343477110259E-01
   3.942315709368132E-01   3.991903936476305E-01   4.042115906696137E-01
   4.092959465750146E-01   4.144442558047863E-01   4.196573227927207E-01
   4.249359620911418E-01   4.302809984981778E-01   4.356932671866433E-01
   4.411736138345309E-01   4.467228947571548E-01   4.523419770409500E-01
   4.580317386789540E-01   4.637930687080002E-01   4.696268673476257E-01
   4.755340461407373E-01   4.815155280960409E-01   4.875722478322596E-01
   4.937051517241763E-01   4.999151980505001E-01   5.062033571436045E-01
   5.125706115411424E-01   5.190179561395656E-01   5.255463983495867E-01
   5.321569582535817E-01   5.388506687649853E-01   5.456285757896847E-01
   5.524917383894402E-01   5.594412289473732E-01   5.664781333355202E-01
   5.736035510845097E-01   5.808185955553626E-01   5.881243941134546E-01
   5.955220883046763E-01   6.030128340337937E-01   6.105978017450679E-01
   6.182781766051368E-01   6.260551586881958E-01   6.339299631635201E-01
   6.419038204853281E-01   6.499779765850504E-01   6.581536930660058E-01
   6.664322474005256E-01   6.748149331295699E-01   6.833030600648362E-01
   6.918979544934284E-01   7.006009593850888E-01   7.094134346020355E-01
   7.183367571114531E-01   7.273723212006354E-01   7.365215386948558E-01
   7.457858391779633E-01   7.551666702157541E-01   7.646654975821661E-01
   7.742838054882978E-01   7.840230968143297E-01   7.938848933443478E-01
   8.038707360041208E-01   8.139821851018836E-01   8.242208205721268E-01
   8.345882422224745E-01   8.450860699836540E-01   8.557159441626080E-01
   8.664795256988065E-01   8.773784964237601E-01   8.884145593238204E-01
   8.995894388062700E-01   9.109048809687605E-01   9.223626538721544E-01
   9.339645478167756E-01   9.457123756221587E-01   9.576079729103013E-01
   9.696531983924779E-01   9.818499341596800E-01   9.942000859766819E-01
   1.006705583579833E+00   1.019368380978579E+00   1.032190456760773E+00
   1.045173814401844E+00   1.058320482577837E+00   1.071632515482402E+00
   1.085111993147767E+00   1.098761021769737E+00   1.112581734036806E+00
   1.126576289463383E+00   1.140746874727225E+00   1.155095704011113E+00
   1.169625019348810E+00   1.184337090975404E+00   1.199234217682013E+00
   1.214318727174996E+00   1.229592976439653E+00   1.245059352108503E+00
   1.260720270834215E+00   1.276578179667197E+00   1.292635556437971E+00
   1.308894910144329E+00   1.325358781343361E+00   1.342029742548444E+00
   1.358910398631179E+00   1.376003387228425E+00   1.393311379154428E+00
   1.410837078818135E+00   1.428583224645780E+00   1.446552589508750E+00
   1.464747981156864E+00   1.483172242657089E+00   1.501828252837764E+00
   1.520718926738441E+00   1.539847216065345E+00   1.559216109652602E+00
   1.578828633929246E+00   1.598687853392090E+00   1.618796871084585E+00
   1.639158829081651E+00   1.659776908980657E+00   1.680654332398536E+00
   1.701794361475167E+00   1.723200299383109E+00   1.744875490843705E+00
   1.766823322649721E+00   1.789047224194536E+00   1.811550668007972E+00
   1.834337170298916E+00   1.857410291504704E+00   1.880773636847470E+00
   1.904430856897460E+00   1.928385648143433E+00   1.952641753570262E+00
   1.977202963243763E+00   2.002073114902922E+00   2.027256094559537E+00
   2.052755837105409E+00   2.078576326927196E+00   2.104721598528958E+00
   2.131195737162579E+00   2.158002879466088E+00   2.185147214110000E+00
   2.212632982451837E+00   2.240464479198816E+00   2.268646053078928E+00
   2.297182107520436E+00   2.326077101339892E+00   2.355335549438878E+00
   2.384962023509427E+00   2.414961152748392E+00   2.445337624580754E+00
   2.476096185392032E+00   2.507241641269938E+00   2.538778858755310E+00
   2.570712765602549E+00   2.603048351549574E+00   2.635790669097466E+00
   2.668944834299968E+00   2.702516027562834E+00   2.736509494453319E+00
   2.770930546519789E+00   2.805784562121650E+00   2.841076987269760E+00
   2.876813336477343E+00   2.912999193621671E+00   2.949640212816552E+00
   2.986742119295769E+00   3.024310710307706E+00   3.062351856021130E+00
   3.100871500442462E+00   3.139875662344515E+00   3.179370436206930E+00
   3.219361993168488E+00   3.259856581991316E+00   3.300860530037309E+00
   3.342380244256780E+00   3.384422212189535E+00   3.426993002978612E+00
   3.470099268396669E+00   3.513747743885384E+00   3.557945249607864E+00
   3.602698691514284E+00   3.648015062421007E+00   3.693901443103171E+00
   3.740365003401121E+00   3.787413003340691E+00   3.835052794267578E+00
   3.883291819996051E+00   3.932137617972011E+00   3.981597820450774E+00
   4.031680155689614E+00   4.082392449155290E+00   4.133742624746846E+00
   4.185738706033677E+00   4.238388817509275E+00   4.291701185860687E+00
   4.345684141253916E+00   4.400346118635587E+00   4.455695659050859E+00
   4.511741410978042E+00   4.568492131679908E+00   4.625956688572010E+00
   4.684144060608292E+00   4.743063339683999E+00   4.802723732056370E+00
   4.863134559783101E+00   4.924305262178915E+00   4.986245397290527E+00
   5.048964643390055E+00   5.112472800487309E+00   5.176779791861056E+00
   5.241895665609511E+00   5.307830596220447E+00   5.374594886160899E+00
   5.442198967487012E+00   5.510653403474042E+00   5.579968890266869E+00
   5.650156258551344E+00   5.721226475246540E+00   5.793190645218419E+00
   5.866060013014962E+00   5.939845964623119E+00   6.014560029247970E+00
   6.090213881114098E+00   6.166819341289785E+00   6.244388379534053E+00
   6.322933116166918E+00   6.402465823963302E+00   6.482998930070589E+00
   6.564545017950461E+00   6.647116829345071E+00   6.730727266267919E+00
   6.815389393019903E+00   6.901116438230552E+00   6.987921796925106E+00
   7.075819032617479E+00   7.164821879429550E+00   7.254944244237239E+00
   7.346200208843377E+00   7.438604032178106E+00   7.532170152526835E+00
   7.626913189786201E+00   7.722847947748559E+00   7.819989416414997E+00
   7.918352774337641E+00   8.017953390991304E+00   8.118806829174947E+00
   8.220928847443504E+00   8.324335402570069E+00   8.429042652039278E+00
   8.535066956571903E+00   8.642424882681206E+00   8.751133205261594E+00
   8.861208910209607E+00   8.972669197078110E+00   9.085531481763709E+00
   9.199813399227976E+00   9.315532806253055E+00   9.432707784231692E+00
   9.551356641992607E+00   9.671497918661238E+00   9.793150386556457E+00
   9.916333054123914E+00   1.004106516890599E+01   1.016736622054942E+01
   1.029525594385050E+01   1.042475432183864E+01   1.055588158889892E+01
   1.068865823393355E+01   1.082310500356348E+01   1.095924290537001E+01
   1.109709321117724E+01   1.123667746037595E+01   1.137801746328902E+01
   1.152113530457948E+01   1.166605334670124E+01   1.181279423339317E+01
   1.196138089321740E+01   1.211183654314180E+01   1.226418469216778E+01
   1.241844914500362E+01   1.257465400578387E+01   1.273282368183588E+01
   1.289298288749329E+01   1.305515664795784E+01   1.321937030320958E+01
   1.338564951196620E+01   1.355402025569239E+01   1.372450884265939E+01
   1.389714191205578E+01   1.407194643814990E+01   1.424894973450457E+01
   1.442817945824498E+01   1.460966361438008E+01   1.479343056017852E+01