<UPF version="2.0.1">
  <PP_INFO>
    Generated using "atomic" code by A. Dal Corso  v.7.2
    Author: ADC
    Generation date: 22Sep2023
    Pseudopotential type: USPP
    Element: Pr
    Functional: PBESOL
    Suggested minimum cutoff for wavefunctions: 120. Ry
    Suggested minimum cutoff for charge density: 621. Ry
    The Pseudo was generated with a Scalar-Relativistic Calculation
    Local Potential by smoothing AE potential with Bessel fncs, cutoff radius:   2.1000
    Valence configuration: 
    nl pn  l   occ       Rcut    Rcut US       E pseu
    5S  1  0  2.00      1.200      1.800    -2.870040
    6S  2  0  2.00      1.200      1.800    -0.255742
    5P  2  1  6.00      1.400      1.900    -1.578492
    4D  3  2 10.00      0.900      1.000    -8.114445
    4F  4  3  3.00      1.000      1.300    -0.094261
    Generation configuration:
    5S  1  0  2.00      1.200      1.800    -2.870067
    6S  2  0  2.00      1.200      1.800    -0.255749
    5P  2  1  6.00      1.400      1.900    -1.578510
    6P  3  1  0.00      1.400      1.900     0.300000
    4D  3  2 10.00      0.900      1.000    -8.114496
    5D  4  2  0.00      0.900      1.300     0.050000
    4F  4  3  3.00      1.000      1.300    -0.094296
    4F  4  3  0.00      1.000      1.300     1.000000
    Pseudization used: troullier-martins
    <PP_INPUTFILE>
@input
title='Pr',
zed=59.0,
rel=1,
config='[Xe] 4f3.0 5d0.0 6s2. 6p0.',
iswitch=3,
dft='PBESOL'
/
@inputp
lpaw=.false.,
pseudotype=3,
file_pseudopw='Pr.pbesol-spdfn-rrkjus_psl.1.0.0.UPF',
author='ADC',
lloc=-1,
rcloc=2.1,
which_augfun='PSQ',
rmatch_augfun_nc=.true.,
nlcc=.true.,
new_core_ps=.true.,
rcore=1.1,
tm=.true.
/
8
5S  1  0  2.00  0.00  1.20  1.80  0.0
6S  2  0  2.00  0.00  1.20  1.80  0.0
5P  2  1  6.00  0.00  1.40  1.90  0.0
6P  3  1  0.00  0.30  1.40  1.90  0.0
4D  3  2 10.00  0.00  0.90  1.00  0.0
5D  4  2  0.00  0.05  0.90  1.30  0.0
4F  4  3  3.00  0.00  1.00  1.30  0.0
4F  4  3  0.00  1.00  1.00  1.30  0.0
    </PP_INPUTFILE>
  </PP_INFO>
    <!-- END OF HUMAN READABLE SECTION -->
  <PP_HEADER generated="Generated using 'atomic' code by A. Dal Corso  v.7.2" author="ADC" date="22Sep2023" comment="" element="Pr" pseudo_type="USPP" relativistic="scalar" is_ultrasoft="true" is_paw="false" is_coulomb="false" has_so="false" has_wfc="false" has_gipaw="false" paw_as_gipaw="false" core_correction="true" functional="PBESOL" z_valence="23.000000000000000" total_psenergy="-489.56377695026066" wfc_cutoff="119.72390091800743" rho_cutoff="621.05750965736229" l_max="3" l_max_rho="6" l_local="-1" mesh_size="1255" number_of_wfc="5" number_of_proj="8"/>
  <PP_MESH mesh="1255" dx="1.2500000000000001E-002" xmin="-7.0000000000000000" rmax="100.00000000000000" zmesh="59.000000000000000">
    <PP_R>
   1.545562653482231E-05   1.565003438422072E-05   1.584688758333190E-05
   1.604621689086871E-05   1.624805345244101E-05   1.645242880542218E-05
   1.665937488387693E-05   1.686892402355104E-05   1.708110896692390E-05
   1.729596286832465E-05   1.751351929911249E-05   1.773381225292235E-05
   1.795687615097644E-05   1.818274584746266E-05   1.841145663498064E-05
   1.864304425005624E-05   1.887754487872548E-05   1.911499516218869E-05
   1.935543220253572E-05   1.959889356854335E-05   1.984541730154533E-05
   2.009504192137649E-05   2.034780643239154E-05   2.060375032955957E-05
   2.086291360463527E-05   2.112533675240762E-05   2.139106077702736E-05
   2.166012719841397E-05   2.193257805874319E-05   2.220845592901627E-05
   2.248780391571172E-05   2.277066566752079E-05   2.305708538216769E-05
   2.334710781331555E-05   2.364077827755930E-05   2.393814266150647E-05
   2.423924742894702E-05   2.454413962811348E-05   2.485286689903225E-05
   2.516547748096757E-05   2.548202021995885E-05   2.580254457645308E-05
   2.612710063303305E-05   2.645573910224292E-05   2.678851133451216E-05
   2.712546932617906E-05   2.746666572761537E-05   2.781215385145298E-05
   2.816198768091413E-05   2.851622187824646E-05   2.887491179326397E-05
   2.923811347199563E-05   2.960588366544271E-05   2.997827983844611E-05
   3.035536017866559E-05   3.073718360567145E-05   3.112380978015097E-05
   3.151529911323053E-05   3.191171277591487E-05   3.231311270864536E-05
   3.271956163097812E-05   3.313112305138418E-05   3.354786127717283E-05
   3.396984142453964E-05   3.439712942874125E-05   3.482979205439761E-05
   3.526789690592422E-05   3.571151243809549E-05   3.616070796674081E-05
   3.661555367957550E-05   3.707612064716754E-05   3.754248083404266E-05
   3.801470710992887E-05   3.849287326114249E-05   3.897705400211756E-05
   3.946732498707990E-05   3.996376282186835E-05   4.046644507590463E-05
   4.097545029431362E-05   4.149085801019632E-05   4.201274875705692E-05
   4.254120408138642E-05   4.307630655540438E-05   4.361813978996101E-05
   4.416678844760166E-05   4.472233825579528E-05   4.528487602032967E-05
   4.585448963887503E-05   4.643126811471811E-05   4.701530157066930E-05
   4.760668126314428E-05   4.820549959642318E-05   4.881185013708886E-05
   4.942582762864691E-05   5.004752800632960E-05   5.067704841208576E-05
   5.131448720975958E-05   5.195994400046005E-05   5.261351963812388E-05
   5.327531624527424E-05   5.394543722897740E-05   5.462398729700045E-05
   5.531107247417200E-05   5.600680011894884E-05   5.671127894019105E-05
   5.742461901414766E-05   5.814693180165652E-05   5.887833016556023E-05
   5.961892838834116E-05   6.036884218997847E-05   6.112818874602933E-05
   6.189708670593802E-05   6.267565621157512E-05   6.346401891600983E-05
   6.426229800251878E-05   6.507061820383328E-05   6.588910582162932E-05
   6.671788874626243E-05   6.755709647675069E-05   6.840686014100947E-05
   6.926731251634012E-05   7.013858805017690E-05   7.102082288109457E-05
   7.191415486008034E-05   7.281872357207356E-05   7.373467035777574E-05
   7.466213833573570E-05   7.560127242471190E-05   7.655221936631637E-05
   7.751512774794362E-05   7.849014802598722E-05   7.947743254934934E-05
   8.047713558324538E-05   8.148941333330823E-05   8.251442396999598E-05
   8.355232765330597E-05   8.460328655780029E-05   8.566746489794600E-05
   8.674502895377376E-05   8.783614709685973E-05   8.894098981663364E-05
   9.005972974701822E-05   9.119254169340373E-05   9.233960265996144E-05
   9.350109187730122E-05   9.467719083047626E-05   9.586808328734081E-05
   9.707395532726415E-05   9.829499537020579E-05   9.953139420615682E-05
   1.007833450249507E-04   1.020510434464501E-04   1.033346875511125E-04
   1.046344779109407E-04   1.059506176208231E-04   1.072833123302669E-04
   1.086327702755319E-04   1.099992023121676E-04   1.113828219479595E-04
   1.127838453762911E-04   1.142024915099232E-04   1.156389820152005E-04
   1.170935413466870E-04   1.185663967822375E-04   1.200577784585106E-04
   1.215679194069271E-04   1.230970555900829E-04   1.246454259386176E-04
   1.262132723885481E-04   1.278008399190725E-04   1.294083765908468E-04
   1.310361335847470E-04   1.326843652411148E-04   1.343533290994999E-04
   1.360432859389010E-04   1.377544998185120E-04   1.394872381189836E-04
   1.412417715842002E-04   1.430183743635853E-04   1.448173240549381E-04
   1.466389017478074E-04   1.484833920674140E-04   1.503510832191230E-04
   1.522422670334765E-04   1.541572390117936E-04   1.560962983723414E-04
   1.580597480970903E-04   1.600478949790544E-04   1.620610496702289E-04
   1.640995267301304E-04   1.661636446749462E-04   1.682537260273053E-04
   1.703700973666709E-04   1.725130893803707E-04   1.746830369152669E-04
   1.768802790300763E-04   1.791051590483501E-04   1.813580246121174E-04
   1.836392277362060E-04   1.859491248632456E-04   1.882880769193611E-04
   1.906564493705706E-04   1.930546122798877E-04   1.954829403651461E-04
   1.979418130575501E-04   2.004316145609596E-04   2.029527339119258E-04
   2.055055650404762E-04   2.080905068316684E-04   2.107079631879168E-04
   2.133583430921017E-04   2.160420606714757E-04   2.187595352623707E-04
   2.215111914757200E-04   2.242974592634058E-04   2.271187739854378E-04
   2.299755764779819E-04   2.328683131222397E-04   2.357974359141969E-04
   2.387634025352498E-04   2.417666764237162E-04   2.448077268472522E-04
   2.478870289761733E-04   2.510050639577017E-04   2.541623189911477E-04
   2.573592874040330E-04   2.605964687291768E-04   2.638743687827473E-04
   2.671934997432964E-04   2.705543802317902E-04   2.739575353926419E-04
   2.774034969757700E-04   2.808928034196823E-04   2.844259999356095E-04
   2.880036385926964E-04   2.916262784042607E-04   2.952944854151443E-04
   2.990088327901553E-04   3.027699009036277E-04   3.065782774301070E-04
   3.104345574361725E-04   3.143393434734218E-04   3.182932456726171E-04
   3.222968818390213E-04   3.263508775489310E-04   3.304558662474236E-04
   3.346124893473353E-04   3.388213963294819E-04   3.430832448441422E-04
   3.473987008138180E-04   3.517684385372838E-04   3.561931407949497E-04
   3.606734989555453E-04   3.652102130841487E-04   3.698039920515724E-04
   3.744555536451262E-04   3.791656246807729E-04   3.839349411166944E-04
   3.887642481682870E-04   3.936543004246030E-04   3.986058619662560E-04
   4.036197064848115E-04   4.086966174036759E-04   4.138373880005091E-04
   4.190428215311763E-04   4.243137313552567E-04   4.296509410631347E-04
   4.350552846046853E-04   4.405276064195822E-04   4.460687615692426E-04
   4.516796158704319E-04   4.573610460305506E-04   4.631139397846198E-04
   4.689391960339928E-04   4.748377249868105E-04   4.808104483002221E-04
   4.868582992243972E-04   4.929822227483471E-04   4.991831757475811E-04
   5.054621271336222E-04   5.118200580053983E-04   5.182579618025440E-04
   5.247768444606253E-04   5.313777245683201E-04   5.380616335265754E-04
   5.448296157097638E-04   5.516827286288717E-04   5.586220430967350E-04
   5.656486433953573E-04   5.727636274453315E-04   5.799681069773904E-04
   5.872632077061191E-04   5.946500695058481E-04   6.021298465887621E-04
   6.097037076852486E-04   6.173728362265124E-04   6.251384305294917E-04
   6.330017039840953E-04   6.409638852427980E-04   6.490262184126214E-04
   6.571899632495256E-04   6.654563953552512E-04   6.738268063766326E-04
   6.823025042074212E-04   6.908848131926479E-04   6.995750743355516E-04
   7.083746455071173E-04   7.172849016582426E-04   7.263072350345794E-04
   7.354430553940741E-04   7.446937902272444E-04   7.540608849802292E-04
   7.635458032806410E-04   7.731500271662611E-04   7.828750573166122E-04
   7.927224132874403E-04   8.026936337481513E-04   8.127902767222283E-04
   8.230139198306775E-04   8.333661605385354E-04   8.438486164044736E-04
   8.544629253335488E-04   8.652107458331257E-04   8.760937572720239E-04
   8.871136601429217E-04   8.982721763280644E-04   9.095710493683074E-04
   9.210120447355507E-04   9.325969501085976E-04   9.443275756524813E-04
   9.562057543013110E-04   9.682333420446660E-04   9.804122182176015E-04
   9.927442857942976E-04   1.005231471685402E-03   1.017875727039118E-03
   1.030679027546067E-03   1.043643373748004E-03   1.056770791350398E-03
   1.070063331538956E-03   1.083523071300128E-03   1.097152113745637E-03
   1.110952588441091E-03   1.124926651738740E-03   1.139076487114403E-03
   1.153404305508647E-03   1.167912345672247E-03   1.182602874515994E-03
   1.197478187464909E-03   1.212540608816902E-03   1.227792492105957E-03
   1.243236220469867E-03   1.258874207022609E-03   1.274708895231397E-03
   1.290742759298480E-03   1.306978304547741E-03   1.323418067816156E-03
   1.340064617850181E-03   1.356920555707128E-03   1.373988515161580E-03
   1.391271163116929E-03   1.408771200022077E-03   1.426491360293397E-03
   1.444434412741981E-03   1.462603161006280E-03   1.481000443990176E-03
   1.499629136306565E-03   1.518492148726521E-03   1.537592428634111E-03
   1.556932960486930E-03   1.576516766282432E-03   1.596346906030113E-03
   1.616426478229655E-03   1.636758620355066E-03   1.657346509344916E-03
   1.678193362098751E-03   1.699302435979725E-03   1.720677029323578E-03
   1.742320481954007E-03   1.764236175704519E-03   1.786427534946853E-03
   1.808898027126038E-03   1.831651163302192E-03   1.854690498699135E-03
   1.878019633259898E-03   1.901642212209216E-03   1.925561926623115E-03
   1.949782514005634E-03   1.974307758872831E-03   1.999141493344112E-03
   2.024287597741010E-03   2.049750001193503E-03   2.075532682253931E-03
   2.101639669518666E-03   2.128075042257582E-03   2.154842931051450E-03
   2.181947518437360E-03   2.209393039562232E-03   2.237183782844581E-03
   2.265324090644585E-03   2.293818359942588E-03   2.322671043026144E-03
   2.351886648185683E-03   2.381469740418952E-03   2.411424942144299E-03
   2.441756933922937E-03   2.472470455190295E-03   2.503570304996557E-03
   2.535061342756527E-03   2.566948489008927E-03   2.599236726185228E-03
   2.631931099388187E-03   2.665036717180130E-03   2.698558752381192E-03
   2.732502442877574E-03   2.766873092439973E-03   2.801676071552315E-03
   2.836916818250891E-03   2.872600838974071E-03   2.908733709422693E-03
   2.945321075431274E-03   2.982368653850195E-03   3.019882233438958E-03
   3.057867675770693E-03   3.096330916148047E-03   3.135277964530581E-03
   3.174714906473848E-03   3.214647904080260E-03   3.255083196961936E-03
   3.296027103215655E-03   3.337486020410069E-03   3.379466426585342E-03
   3.421974881265347E-03   3.465018026482612E-03   3.508602587816149E-03
   3.552735375442336E-03   3.597423285199036E-03   3.642673299663062E-03
   3.688492489241237E-03   3.734888013275152E-03   3.781867121159827E-03
   3.829437153476456E-03   3.877605543139364E-03   3.926379816557439E-03
   3.975767594810132E-03   4.025776594838273E-03   4.076414630649868E-03
   4.127689614541030E-03   4.179609558332315E-03   4.232182574620572E-03
   4.285416878046551E-03   4.339320786578476E-03   4.393902722811723E-03
   4.449171215284872E-03   4.505134899812318E-03   4.561802520833625E-03
   4.619182932779875E-03   4.677285101457173E-03   4.736118105447584E-03
   4.795691137527679E-03   4.856013506104917E-03   4.917094636672125E-03
   4.978944073280219E-03   5.041571480029504E-03   5.104986642579700E-03
   5.169199469678971E-03   5.234219994712202E-03   5.300058377268710E-03
   5.366724904729718E-03   5.434229993875778E-03   5.502584192514402E-03
   5.571798181128206E-03   5.641882774543723E-03   5.712848923621262E-03
   5.784707716965999E-03   5.857470382660586E-03   5.931148290019584E-03
   6.005752951365913E-03   6.081296023829692E-03   6.157789311169686E-03
   6.235244765617667E-03   6.313674489745983E-03   6.393090738358594E-03
   6.473505920405917E-03   6.554932600923755E-03   6.637383502996593E-03
   6.720871509745643E-03   6.805409666341810E-03   6.891011182044057E-03
   6.977689432263369E-03   7.065457960652685E-03   7.154330481223145E-03
   7.244320880486895E-03   7.335443219626907E-03   7.427711736694061E-03
   7.521140848831862E-03   7.615745154529181E-03   7.711539435901249E-03
   7.808538660999425E-03   7.906757986149978E-03   8.006212758322282E-03
   8.106918517526849E-03   8.208890999243434E-03   8.312146136879769E-03
   8.416700064261184E-03   8.522569118151541E-03   8.629769840805920E-03
   8.738318982555327E-03   8.848233504424007E-03   8.959530580779623E-03
   9.072227602016784E-03   9.186342177274360E-03   9.301892137186891E-03
   9.418895536670706E-03   9.537370657745020E-03   9.657336012388525E-03
   9.778810345431979E-03   9.901812637487052E-03   1.002636210791213E-02
   1.015247821781535E-02   1.028018067309548E-02   1.040948942752098E-02
   1.054042468584780E-02   1.067300690697645E-02   1.080725680714871E-02
   1.094319536318461E-02   1.108084381576013E-02   1.122022367272600E-02
   1.136135671246847E-02   1.150426498731212E-02   1.164897082696563E-02
   1.179549684201088E-02   1.194386592743582E-02   1.209410126621191E-02
   1.224622633291648E-02   1.240026489740071E-02   1.255624102850370E-02
   1.271417909781325E-02   1.287410378347405E-02   1.303604007404358E-02
   1.320001327239669E-02   1.336604899967927E-02   1.353417319931148E-02
   1.370441214104157E-02   1.387679242505055E-02   1.405134098610848E-02
   1.422808509778318E-02   1.440705237670167E-02   1.458827078686539E-02
   1.477176864401964E-02   1.495757462007789E-02   1.514571774760196E-02
   1.533622742433830E-02   1.552913341781149E-02   1.572446586997548E-02
   1.592225530192332E-02   1.612253261865617E-02   1.632532911391224E-02
   1.653067647505650E-02   1.673860678803190E-02   1.694915254237288E-02
   1.716234663628194E-02   1.737822238176999E-02   1.759681350986145E-02
   1.781815417586483E-02   1.804227896470948E-02   1.826922289634969E-02
   1.849902143123647E-02   1.873171047585845E-02   1.896732638835223E-02
   1.920590598418350E-02   1.944748654189953E-02   1.969210580895396E-02
   1.993980200760493E-02   2.019061384088744E-02   2.044458049866069E-02
   2.070174166373170E-02   2.096213751805568E-02   2.122580874901466E-02
   2.149279655577492E-02   2.176314265572443E-02   2.203688929099138E-02
   2.231407923504444E-02   2.259475579937633E-02   2.287896284027125E-02
   2.316674476565756E-02   2.345814654204664E-02   2.375321370155888E-02
   2.405199234903827E-02   2.435452916925636E-02   2.466087143420680E-02
   2.497106701049179E-02   2.528516436680120E-02   2.560321258148599E-02
   2.592526135022678E-02   2.625136099379887E-02   2.658156246593507E-02
   2.691591736128719E-02   2.725447792348786E-02   2.759729705331375E-02
   2.794442831695133E-02   2.829592595436683E-02   2.865184488778122E-02
   2.901224073025195E-02   2.937716979436265E-02   2.974668910102201E-02
   3.012085638837354E-02   3.049973012081711E-02   3.088336949814424E-02
   3.127183446478815E-02   3.166518571919021E-02   3.206348472328424E-02
   3.246679371209994E-02   3.287517570348737E-02   3.328869450796353E-02
   3.370741473868291E-02   3.413140182153351E-02   3.456072200535959E-02
   3.499544237231335E-02   3.543563084833656E-02   3.588135621377415E-02
   3.633268811412135E-02   3.678969707090581E-02   3.725245449270683E-02
   3.772103268631304E-02   3.819550486802049E-02   3.867594517507295E-02
   3.916242867724584E-02   3.965503138857614E-02   4.015383027923969E-02
   4.065890328757794E-02   4.117032933227608E-02   4.168818832469408E-02
   4.221256118135309E-02   4.274352983657881E-02   4.328117725530384E-02
   4.382558744603130E-02   4.437684547396105E-02   4.493503747428149E-02
   4.550025066562834E-02   4.607257336371263E-02   4.665209499512046E-02
   4.723890611128562E-02   4.783309840263898E-02   4.843476471293501E-02
   4.904399905375866E-02   4.966089661921533E-02   5.028555380080455E-02
   5.091806820248190E-02   5.155853865590958E-02   5.220706523589883E-02
   5.286374927604738E-02   5.352869338457236E-02   5.420200146034364E-02
   5.488377870911802E-02   5.557413165997752E-02   5.627316818197545E-02
   5.698099750099034E-02   5.769773021679352E-02   5.842347832033012E-02
   5.915835521121765E-02   5.990247571546565E-02   6.065595610341662E-02
   6.141891410791425E-02   6.219146894269910E-02   6.297374132103566E-02
   6.376585347457482E-02   6.456792917245191E-02   6.538009374062666E-02
   6.620247408146533E-02   6.703519869356911E-02   6.787839769185304E-02
   6.873220282787587E-02   6.959674751042731E-02   7.047216682637306E-02
   7.135859756176204E-02   7.225617822320038E-02   7.316504905949228E-02
   7.408535208355520E-02   7.501723109460912E-02   7.596083170064516E-02
   7.691630134117809E-02   7.788378931028288E-02   7.886344677992320E-02
   7.985542682357194E-02   8.085988444012886E-02   8.187697657814040E-02
   8.290686216032214E-02   8.394970210839175E-02   8.500565936821293E-02
   8.607489893525562E-02   8.715758788037782E-02   8.825389537592966E-02
   8.936399272218797E-02   9.048805337412169E-02   9.162625296849435E-02
   9.277876935130856E-02   9.394578260559362E-02   9.512747507954500E-02
   9.632403141501607E-02   9.753563857636832E-02   9.876248587968610E-02
   1.000047650223562E-01   1.012626701130224E-01   1.025363977019144E-01
   1.038261468115591E-01   1.051321189678792E-01   1.064545182316808E-01
   1.077935512305395E-01   1.091494271910858E-01   1.105223579716968E-01
   1.119125580956006E-01   1.133202447843944E-01   1.147456379919877E-01
   1.161889604389692E-01   1.176504376474074E-01   1.191302979760898E-01
   1.206287726562033E-01   1.221460958274655E-01   1.236825045747091E-01
   1.252382389649263E-01   1.268135420847811E-01   1.284086600785906E-01
   1.300238421867869E-01   1.316593407848606E-01   1.333154114227948E-01
   1.349923128649963E-01   1.366903071307267E-01   1.384096595350449E-01
   1.401506387302623E-01   1.419135167479197E-01   1.436985690412946E-01
   1.455060745284389E-01   1.473363156357627E-01   1.491895783421629E-01
   1.510661522237074E-01   1.529663304988836E-01   1.548904100744123E-01
   1.568386915916422E-01   1.588114794735243E-01   1.608090819721784E-01
   1.628318112170595E-01   1.648799832637269E-01   1.669539181432302E-01
   1.690539399121140E-01   1.711803767030518E-01   1.733335607761188E-01
   1.755138285707067E-01   1.777215207580944E-01   1.799569822946782E-01
   1.822205624758704E-01   1.845126149906805E-01   1.868334979769763E-01
   1.891835740774468E-01   1.915632104962642E-01   1.939727790564597E-01
   1.964126562580238E-01   1.988832233367324E-01   2.013848663237186E-01
   2.039179761057888E-01   2.064829484864995E-01   2.090801842480045E-01
   2.117100892136748E-01   2.143730743115122E-01   2.170695556383566E-01
   2.197999545249006E-01   2.225646976015259E-01   2.253642168649625E-01
   2.281989497457917E-01   2.310693391767926E-01   2.339758336621542E-01
   2.369188873475533E-01   2.398989600911154E-01   2.429165175352703E-01
   2.459720311795072E-01   2.490659784540498E-01   2.521988427944551E-01
   2.553711137171490E-01   2.585832868959183E-01   2.618358642393564E-01
   2.651293539692910E-01   2.684642707001937E-01   2.718411355195877E-01
   2.752604760694722E-01   2.787228266287637E-01   2.822287281967821E-01
   2.857787285777805E-01   2.893733824665400E-01   2.930132515350451E-01
   2.966989045202422E-01   3.004309173129092E-01   3.042098730476382E-01
   3.080363621939503E-01   3.119109826485605E-01   3.158343398287969E-01
   3.198070467672014E-01   3.238297242073164E-01   3.279030007006749E-01
   3.320275127050173E-01   3.362039046837345E-01   3.404328292065706E-01
   3.447149470515869E-01   3.490509273084074E-01   3.534414474827701E-01
   3.578871936023835E-01   3.623888603241245E-01   3.669471510425775E-01
   3.715627779999402E-01   3.762364623973163E-01   3.809689345074004E-01
   3.857609337885886E-01   3.906132090005187E-01   3.955265183210631E-01
   4.005016294648008E-01   4.055393198029686E-01   4.106403764849318E-01
   4.158055965611758E-01   4.210357871078449E-01   4.263317653528542E-01
   4.316943588035779E-01   4.371244053761536E-01   4.426227535264067E-01
   4.481902623824204E-01   4.538278018787823E-01   4.595362528925069E-01
   4.653165073806796E-01   4.711694685198253E-01   4.770960508470281E-01
   4.830971804028359E-01   4.891737948759498E-01   4.953268437497448E-01
   5.015572884506267E-01   5.078661024982547E-01   5.142542716576604E-01
   5.207227940932700E-01   5.272726805248756E-01   5.339049543855587E-01
   5.406206519816017E-01   5.474208226544190E-01   5.543065289445114E-01
   5.612788467574968E-01   5.683388655322198E-01   5.754876884109754E-01
   5.827264324118853E-01   5.900562286034245E-01   5.974782222811617E-01
   6.049935731467103E-01   6.126034554889311E-01   6.203090583674243E-01
   6.281115857983152E-01   6.360122569423898E-01   6.440123062955899E-01
   6.521129838819006E-01   6.603155554486784E-01   6.686213026644162E-01
   6.770315233190158E-01   6.855475315265667E-01   6.941706579306746E-01
   7.029022499123867E-01   7.117436718007121E-01   7.206963050858098E-01
   7.297615486348468E-01   7.389408189105680E-01   7.482355501926320E-01
   7.576471948017095E-01   7.671772233264197E-01   7.768271248531105E-01
   7.865984071985250E-01   7.964925971454127E-01   8.065112406810797E-01
   8.166559032389630E-01   8.269281699432282E-01   8.373296458564439E-01
   8.478619562303866E-01   8.585267467599774E-01   8.693256838404356E-01
   8.802604548276524E-01   8.913327683018382E-01   9.025443543345033E-01
   9.138969647587724E-01   9.253923734431226E-01   9.370323765685507E-01
   9.488187929092230E-01   9.607534641166757E-01   9.728382550075634E-01
   9.850750538550506E-01   9.974657726838553E-01   1.010012347569000E+00
   1.022716738938340E+00   1.035580931878871E+00   1.048606936446913E+00
   1.061796787982185E+00   1.075152547425819E+00   1.088676301642406E+00
   1.102370163746051E+00   1.116236273430571E+00   1.130276797303817E+00
   1.144493929226206E+00   1.158889890653529E+00   1.173466930984045E+00
   1.188227327909964E+00   1.203173387773338E+00   1.218307445926425E+00
   1.233631867096606E+00   1.249149045755862E+00   1.264861406494931E+00
   1.280771404402147E+00   1.296881525447049E+00   1.313194286868830E+00
   1.329712237569647E+00   1.346437958512904E+00   1.363374063126531E+00
   1.380523197711324E+00   1.397888041854460E+00   1.415471308848157E+00
   1.433275746113661E+00   1.451304135630520E+00   1.469559294371269E+00
   1.488044074741609E+00   1.506761365026073E+00   1.525714089839353E+00
   1.544905210583262E+00   1.564337725909456E+00   1.584014672187996E+00
   1.603939123981765E+00   1.624114194526896E+00   1.644543036219211E+00
   1.665228841106781E+00   1.686174841388711E+00   1.707384309920155E+00
   1.728860560723724E+00   1.750606949507303E+00   1.772626874188377E+00
   1.794923775424983E+00   1.817501137153298E+00   1.840362487132027E+00
   1.863511397493621E+00   1.886951485302413E+00   1.910686413119819E+00
   1.934719889576594E+00   1.959055669952333E+00   1.983697556762236E+00
   2.008649400351243E+00   2.033915099495688E+00   2.059498602012457E+00
   2.085403905375874E+00   2.111635057342296E+00   2.138196156582579E+00
   2.165091353322526E+00   2.192324849991338E+00   2.219900901878281E+00
   2.247823817797570E+00   2.276097960761619E+00   2.304727748662799E+00
   2.333717654963707E+00   2.363072209396189E+00   2.392795998669102E+00
   2.422893667184983E+00   2.453369917765782E+00   2.484229512387647E+00
   2.515477272925027E+00   2.547118081904085E+00   2.579156883265587E+00
   2.611598683137439E+00   2.644448550616866E+00   2.677711618562499E+00
   2.711393084396384E+00   2.745498210916073E+00   2.780032327116983E+00
   2.815000829025019E+00   2.850409180539753E+00   2.886262914288155E+00
   2.922567632489057E+00   2.959329007828550E+00   2.996552784346313E+00
   3.034244778333164E+00   3.072410879239853E+00   3.111057050597288E+00
   3.150189330948378E+00   3.189813834791534E+00   3.229936753536101E+00
   3.270564356469773E+00   3.311702991738152E+00   3.353359087336707E+00
   3.395539152115116E+00   3.438249776794320E+00   3.481497634996328E+00
   3.525289484286960E+00   3.569632167231775E+00   3.614532612465188E+00
   3.659997835773121E+00   3.706034941189223E+00   3.752651122104867E+00
   3.799853662393174E+00   3.847649937547086E+00   3.896047415831845E+00
   3.945053659451903E+00   3.994676325732519E+00   4.044923168316269E+00
   4.095802038374521E+00   4.147320885834244E+00   4.199487760620175E+00
   4.252310813912620E+00   4.305798299421141E+00   4.359958574674152E+00
   4.414800102324861E+00   4.470331451473546E+00   4.526561299006477E+00
   4.583498430951746E+00   4.641151743852043E+00   4.699530246154813E+00
   4.758643059619822E+00   4.818499420744423E+00   4.879108682206836E+00
   4.940480314327461E+00   5.002623906548683E+00   5.065549168933230E+00
   5.129265933681354E+00   5.193784156667197E+00   5.259113918994346E+00
   5.325265428571088E+00   5.392249021705391E+00   5.460075164719941E+00
   5.528754455587599E+00   5.598297625587270E+00   5.668715540980763E+00
   5.740019204710636E+00   5.812219758119396E+00   5.885328482690425E+00
   5.959356801810658E+00   6.034316282555578E+00   6.110218637496572E+00
   6.187075726530998E+00   6.264899558735411E+00   6.343702294241901E+00
   6.423496246138230E+00   6.504293882391733E+00   6.586107827797437E+00
   6.668950865950787E+00   6.752835941245016E+00   6.837776160893815E+00
   6.923784796979331E+00   7.010875288525912E+00   7.099061243600072E+00
   7.188356441436688E+00   7.278774834592101E+00   7.370330551124214E+00
   7.463037896799982E+00   7.556911357330806E+00   7.651965600635856E+00
   7.748215479134050E+00   7.845676032064739E+00   7.944362487837576E+00
   8.044290266412084E+00   8.145474981706938E+00   8.247932444039783E+00
   8.351678662597573E+00   8.456729847938000E+00   8.563102414522534E+00
   8.670812983281088E+00   8.779878384209185E+00   8.890315658997634E+00
   9.002142063695274E+00   9.115375071405380E+00   9.230032375015753E+00
   9.346131889963369E+00   9.463691757033661E+00   9.582730345195003E+00
   9.703266254469014E+00   9.825318318836720E+00   9.948905609181505E+00
   1.007404743626895E+01   1.020076335376411E+01   1.032907316128692E+01
   1.045899690750582E+01   1.059055489327052E+01   1.072376767478397E+01
   1.085865606681425E+01   1.099524114594710E+01   1.113354425387898E+01
   1.127358700075190E+01   1.141539126852999E+01   1.155897921441857E+01
   1.170437327432635E+01   1.185159616637095E+01   1.200067089442880E+01
   1.215162075172949E+01   1.230446932449528E+01   1.245924049562668E+01
   1.261595844843402E+01   1.277464767041629E+01   1.293533295708732E+01
   1.309803941585000E+01   1.326279246991960E+01   1.342961786229597E+01
   1.359854165978608E+01   1.376959025707702E+01   1.394279038086004E+01
   1.411816909400693E+01   1.429575379979836E+01   1.447557224620596E+01
   1.465765253022783E+01   1.484202310227874E+01   1.502871277063575E+01
   1.521775070593929E+01   1.540916644575139E+01   1.560298989917086E+01
   1.579925135150658E+01   1.599798146900983E+01   1.619921130366572E+01
   1.640297229804537E+01   1.660929629021872E+01   1.681821551872926E+01
   1.702976262763156E+01   1.724397067159171E+01   1.746087312105244E+01
   1.768050386746278E+01   1.790289722857365E+01   1.812808795380024E+01