<UPF version="2.0.1">
  <PP_INFO>
    Generated using "atomic" code by A. Dal Corso  v.7.2
    Author: ADC
    Generation date: 22Sep2023
    Pseudopotential type: USPP
    Element: Rn
    Functional: PBESOL
    Suggested minimum cutoff for wavefunctions:  49. Ry
    Suggested minimum cutoff for charge density: 213. Ry
    The Pseudo was generated with a Scalar-Relativistic Calculation
    Local Potential by smoothing AE potential with Bessel fncs, cutoff radius:   1.9000
    Valence configuration: 
    nl pn  l   occ       Rcut    Rcut US       E pseu
    6S  1  0  2.00      1.400      1.700    -1.612628
    6P  2  1  6.00      1.400      2.000    -0.568750
    5D  3  2 10.00      1.400      1.550    -3.398798
    Generation configuration:
    6S  1  0  2.00      1.400      1.700    -1.612621
    6S  1  0  0.00      1.400      1.700     4.000000
    6P  2  1  6.00      1.400      2.000    -0.568747
    6P  2  1  0.00      1.400      2.000     7.000000
    5D  3  2 10.00      1.400      1.550    -3.398797
    5D  3  2  0.00      1.400      1.550     5.500000
    Pseudization used: troullier-martins
    <PP_INPUTFILE>
@input
title='Rn',
zed=86.,
rel=1,
config='[Xe] 4f14 6s2 6p6 5d10',
iswitch=3,
dft='PBESOL'
/
@inputp
lpaw=.false.,
pseudotype=3,
file_pseudopw='Rn.pbesol-dn-rrkjus_psl.1.0.0.UPF',
author='ADC',
lloc=-1,
rcloc=1.9,
which_augfun='PSQ',
rmatch_augfun_nc=.true.,
nlcc=.true.,
new_core_ps=.true.,
rcore=1.5,
tm=.true.
/
6
6S  1  0  2.00  0.00  1.40  1.70  0.0
6S  1  0  0.00  4.00  1.40  1.70  0.0
6P  2  1  6.00  0.00  1.40  2.00  0.0
6P  2  1  0.00  7.00  1.40  2.00  0.0
5D  3  2 10.00  0.00  1.40  1.55  0.0
5D  3  2  0.00  5.50  1.40  1.55  0.0
    </PP_INPUTFILE>
  </PP_INFO>
    <!-- END OF HUMAN READABLE SECTION -->
  <PP_HEADER generated="Generated using 'atomic' code by A. Dal Corso  v.7.2" author="ADC" date="22Sep2023" comment="" element="Rn" pseudo_type="USPP" relativistic="scalar" is_ultrasoft="true" is_paw="false" is_coulomb="false" has_so="false" has_wfc="false" has_gipaw="false" paw_as_gipaw="false" core_correction="true" functional="PBESOL" z_valence="18.000000000000000" total_psenergy="-237.29690879971878" wfc_cutoff="49.453110826393647" rho_cutoff="213.00027361864730" l_max="2" l_max_rho="4" l_local="-1" mesh_size="1285" number_of_wfc="3" number_of_proj="6"/>
  <PP_MESH mesh="1285" dx="1.2500000000000001E-002" xmin="-7.0000000000000000" rmax="100.00000000000000" zmesh="86.000000000000000">
    <PP_R>
   1.060327866923856E-05   1.073665149615142E-05   1.087170194670444E-05
   1.100845112280528E-05   1.114692039179093E-05   1.128713138976638E-05
   1.142910602498533E-05   1.157286648127339E-05   1.171843522149431E-05
   1.186583499105994E-05   1.201508882148415E-05   1.216622003398161E-05
   1.231925224311175E-05   1.247420936046857E-05   1.263111559841695E-05
   1.278999547387579E-05   1.295087381214888E-05   1.311377575080386E-05
   1.327872674360009E-05   1.344575256446579E-05   1.361487931152528E-05
   1.378613341117689E-05   1.395954162222210E-05   1.413513104004668E-05
   1.431292910085443E-05   1.449296358595406E-05   1.467526262610017E-05
   1.485985470588866E-05   1.504676866820753E-05   1.523603371874372E-05
   1.542767943054641E-05   1.562173574864799E-05   1.581823299474295E-05
   1.601720187192578E-05   1.621867346948836E-05   1.642267926777769E-05
   1.662925114311482E-05   1.683842137277553E-05   1.705022264003376E-05
   1.726468803926845E-05   1.748185108113456E-05   1.770174569779920E-05
   1.792440624824361E-05   1.814986752363177E-05   1.837816475274671E-05
   1.860933360749494E-05   1.884341020848031E-05   1.908043113064798E-05
   1.932043340899923E-05   1.956345454437839E-05   1.980953250933226E-05
   2.005870575404352E-05   2.031101321233860E-05   2.056649430777117E-05
   2.082518895978221E-05   2.108713758993739E-05   2.135238112824311E-05
   2.162096101954187E-05   2.189291922998811E-05   2.216829825360554E-05
   2.244714111892685E-05   2.272949139571706E-05   2.301539320178136E-05
   2.330489120985859E-05   2.359803065460156E-05   2.389485733964487E-05
   2.419541764476197E-05   2.449975853311202E-05   2.480792755857800E-05
   2.511997287319714E-05   2.543594323468471E-05   2.575588801405252E-05
   2.607985720332330E-05   2.640790142334194E-05   2.674007193168530E-05
   2.707642063067109E-05   2.741700007546783E-05   2.776186348230667E-05
   2.811106473679655E-05   2.846465840234399E-05   2.882269972867859E-05
   2.918524466048603E-05   2.955234984614951E-05   2.992407264660116E-05
   3.030047114428486E-05   3.068160415223165E-05   3.106753122324942E-05
   3.145831265922822E-05   3.185400952056242E-05   3.225468363569173E-05
   3.266039761076178E-05   3.307121483940660E-05   3.348719951265399E-05
   3.390841662895544E-05   3.433493200434240E-05   3.476681228271001E-05
   3.520412494623041E-05   3.564693832589701E-05   3.609532161220127E-05
   3.654934486594396E-05   3.700907902918218E-05   3.747459593631426E-05
   3.794596832530405E-05   3.842326984904630E-05   3.890657508687526E-05
   3.939595955621758E-05   3.989149972439226E-05   4.039327302055876E-05
   4.090135784781545E-05   4.141583359545035E-05   4.193678065134570E-05
   4.246428041453888E-05   4.299841530794107E-05   4.353926879121605E-05
   4.408692537382102E-05   4.464147062821120E-05   4.520299120321082E-05
   4.577157483755213E-05   4.634731037358477E-05   4.693028777115766E-05
   4.752059812167519E-05   4.811833366233066E-05   4.872358779051837E-05
   4.933645507842722E-05   4.995703128781791E-05   5.058541338498568E-05
   5.122169955591170E-05   5.186598922160467E-05   5.251838305363565E-05
   5.317898298986829E-05   5.384789225038658E-05   5.452521535362339E-05
   5.521105813269160E-05   5.590552775192077E-05   5.660873272360190E-05
   5.732078292494246E-05   5.804178961523508E-05   5.877186545324203E-05
   5.951112451479827E-05   6.025968231063634E-05   6.101765580443471E-05
   6.178516343109390E-05   6.256232511524210E-05   6.334926228997355E-05
   6.414609791582293E-05   6.495295649997791E-05   6.576996411573381E-05
   6.659724842219285E-05   6.743493868421095E-05   6.828316579259596E-05
   6.914206228455923E-05   7.001176236442511E-05   7.089240192460044E-05
   7.178411856680815E-05   7.268705162358792E-05   7.360134218006682E-05
   7.452713309600446E-05   7.546456902811496E-05   7.641379645266992E-05
   7.737496368838575E-05   7.834822091959845E-05   7.933372021973056E-05
   8.033161557505270E-05   8.134206290874432E-05   8.236522010525728E-05
   8.340124703498487E-05   8.445030557924292E-05   8.551255965556322E-05
   8.658817524330625E-05   8.767732040959623E-05   8.878016533558095E-05
   8.989688234302408E-05   9.102764592122992E-05   9.217263275430807E-05
   9.333202174878094E-05   9.450599406153734E-05   9.569473312813988E-05
   9.689842469148615E-05   9.811725683083176E-05   9.935141999117845E-05
   1.006011070130306E-04   1.018665131625282E-04   1.031478361619565E-04
   1.044452762206409E-04   1.057590360662305E-04   1.070893209763737E-04
   1.084363388107945E-04   1.098003000437699E-04   1.111814177970175E-04
   1.125799078729964E-04   1.139959887886259E-04   1.154298818094304E-04
   1.168818109841115E-04   1.183520031795566E-04   1.198406881162878E-04
   1.213480984043547E-04   1.228744695796820E-04   1.244200401408713E-04
   1.259850515864669E-04   1.275697484526917E-04   1.291743783516547E-04
   1.307991920100426E-04   1.324444433082951E-04   1.341103893202747E-04
   1.357972903534355E-04   1.375054099894956E-04   1.392350151256235E-04
   1.409863760161407E-04   1.427597663147493E-04   1.445554631172918E-04
   1.463737470050465E-04   1.482149020885706E-04   1.500792160520915E-04
   1.519669801984591E-04   1.538784894946621E-04   1.558140426179166E-04
   1.577739420023364E-04   1.597584938861877E-04   1.617680083597398E-04
   1.638027994137178E-04   1.658631849883634E-04   1.679494870231149E-04
   1.700620315069096E-04   1.722011485291209E-04   1.743671723311362E-04
   1.765604413585808E-04   1.787812983142027E-04   1.810300902114197E-04
   1.833071684285405E-04   1.856128887636700E-04   1.879476114903009E-04
   1.903117014136096E-04   1.927055279274565E-04   1.951294650721042E-04
   1.975838915926637E-04   2.000691909982719E-04   2.025857516220176E-04
   2.051339666816182E-04   2.077142343408609E-04   2.103269577718176E-04
   2.129725452178393E-04   2.156514100573475E-04   2.183639708684234E-04
   2.211106514942123E-04   2.238918811091504E-04   2.267080942860232E-04
   2.295597310638695E-04   2.324472370167376E-04   2.353710633233069E-04
   2.383316668373867E-04   2.413295101592993E-04   2.443650617081631E-04
   2.474387957950834E-04   2.505511926972648E-04   2.537027387330555E-04
   2.568939263379354E-04   2.601252541414605E-04   2.633972270451741E-04
   2.667103563014992E-04   2.700651595936230E-04   2.734621611163850E-04
   2.769018916581846E-04   2.803848886839171E-04   2.839116964189539E-04
   2.874828659341791E-04   2.910989552320948E-04   2.947605293340110E-04
   2.984681603683306E-04   3.022224276599459E-04   3.060239178207594E-04
   3.098732248413429E-04   3.137709501837498E-04   3.177177028754950E-04
   3.217140996047160E-04   3.257607648165328E-04   3.298583308106174E-04
   3.340074378399934E-04   3.382087342110753E-04   3.424628763849685E-04
   3.467705290800432E-04   3.511323653757965E-04   3.555490668180243E-04
   3.600213235253127E-04   3.645498342968708E-04   3.691353067217204E-04
   3.737784572892566E-04   3.784800115012027E-04   3.832407039849694E-04
   3.880612786084428E-04   3.929424885962158E-04   3.978850966472794E-04
   4.028898750541980E-04   4.079576058237795E-04   4.130890807992670E-04
   4.182851017840659E-04   4.235464806670260E-04   4.288740395493025E-04
   4.342686108728096E-04   4.397310375502917E-04   4.452621730970309E-04
   4.508628817642094E-04   4.565340386739513E-04   4.622765299560619E-04
   4.680912528864866E-04   4.739791160275142E-04   4.799410393697389E-04
   4.859779544758130E-04   4.920908046260037E-04   4.982805449655835E-04
   5.045481426540742E-04   5.108945770163654E-04   5.173208396957387E-04
   5.238279348088119E-04   5.304168791024350E-04   5.370887021125595E-04
   5.438444463251044E-04   5.506851673388481E-04   5.576119340303660E-04
   5.646258287210462E-04   5.717279473462045E-04   5.789193996263250E-04
   5.862013092404578E-04   5.935748140017956E-04   6.010410660354583E-04
   6.086012319585160E-04   6.162564930622768E-04   6.240080454968620E-04
   6.318571004581104E-04   6.398048843768286E-04   6.478526391104232E-04
   6.560016221369459E-04   6.642531067515731E-04   6.726083822655638E-04
   6.810687542077158E-04   6.896355445283573E-04   6.983100918059064E-04
   7.070937514560230E-04   7.159878959433981E-04   7.249939149962030E-04
   7.341132158232369E-04   7.433472233338089E-04   7.526973803603786E-04
   7.621651478840042E-04   7.717520052626238E-04   7.814594504622065E-04
   7.912890002908162E-04   8.012421906356114E-04   8.113205767028333E-04
   8.215257332608096E-04   8.318592548860141E-04   8.423227562122263E-04
   8.529178721828155E-04   8.636462583062082E-04   8.745095909145631E-04
   8.855095674257015E-04   8.966479066083339E-04   9.079263488506183E-04
   9.193466564321010E-04   9.309106137990765E-04   9.426200278434097E-04
   9.544767281848697E-04   9.664825674570066E-04   9.786394215966325E-04
   9.909491901369403E-04   1.003413796504308E-03   1.016035188318842E-03
   1.028815337698690E-03   1.041756241568194E-03   1.054859921969913E-03
   1.068128426380568E-03   1.081563828030971E-03   1.095168226229962E-03
   1.108943746692438E-03   1.122892541871499E-03   1.137016791294768E-03
   1.151318701904957E-03   1.165800508404695E-03   1.180464473605710E-03
   1.195312888782400E-03   1.210348074029845E-03   1.225572378626329E-03
   1.240988181400421E-03   1.256597891102666E-03   1.272403946781965E-03
   1.288408818166674E-03   1.304615006050508E-03   1.321025042683300E-03
   1.337641492166656E-03   1.354466950854617E-03   1.371504047759332E-03
   1.388755444961856E-03   1.406223838028101E-03   1.423911956430023E-03
   1.441822563972108E-03   1.459958459223225E-03   1.478322475953902E-03
   1.496917483579119E-03   1.515746387606648E-03   1.534812130091050E-03
   1.554117690093378E-03   1.573666084146659E-03   1.593460366727238E-03
   1.613503630732038E-03   1.633799007961839E-03   1.654349669610624E-03
   1.675158826761085E-03   1.696229730886365E-03   1.717565674358103E-03
   1.739169990960874E-03   1.761046056413101E-03   1.783197288894517E-03
   1.805627149580268E-03   1.828339143181717E-03   1.851336818494074E-03
   1.874623768950894E-03   1.898203633185563E-03   1.922080095599844E-03
   1.946256886939565E-03   1.970737784877560E-03   1.995526614603940E-03
   2.020627249423781E-03   2.046043611362343E-03   2.071779671777890E-03
   2.097839451982219E-03   2.124227023869009E-03   2.150946510550050E-03
   2.178002086999501E-03   2.205397980706225E-03   2.233138472334351E-03
   2.261227896392136E-03   2.289670641909233E-03   2.318471153122502E-03
   2.347633930170412E-03   2.377163529796210E-03   2.407064566059916E-03
   2.437341711059277E-03   2.467999695659803E-03   2.499043310233961E-03
   2.530477405409686E-03   2.562306892828302E-03   2.594536745911975E-03
   2.627172000640824E-03   2.660217756339797E-03   2.693679176475452E-03
   2.727561489462765E-03   2.761869989482071E-03   2.796610037306304E-03
   2.831787061138614E-03   2.867406557460542E-03   2.903474091890857E-03
   2.939995300055192E-03   2.976975888466629E-03   3.014421635417344E-03
   3.052338391881482E-03   3.090732082429381E-03   3.129608706153301E-03
   3.168974337604798E-03   3.208835127743875E-03   3.249197304900087E-03
   3.290067175745733E-03   3.331451126281280E-03   3.373355622833202E-03
   3.415787213064337E-03   3.458752526996985E-03   3.502258278048864E-03
   3.546311264082085E-03   3.590918368465348E-03   3.636086561149464E-03
   3.681822899756435E-03   3.728134530682220E-03   3.775028690213369E-03
   3.822512705657723E-03   3.870593996489298E-03   3.919280075507610E-03
   3.968578550011558E-03   4.018497122988076E-03   4.069043594315761E-03
   4.120225861983591E-03   4.172051923325021E-03   4.224529876267575E-03
   4.277667920598167E-03   4.331474359244337E-03   4.385957599571594E-03
   4.441126154697083E-03   4.496988644819785E-03   4.553553798567430E-03
   4.610830454360383E-03   4.668827561792637E-03   4.727554183030225E-03
   4.787019494227195E-03   4.847232786959399E-03   4.908203469676344E-03
   4.969941069171242E-03   5.032455232069622E-03   5.095755726336623E-03
   5.159852442803254E-03   5.224755396711880E-03   5.290474729281089E-03
   5.357020709290303E-03   5.424403734684287E-03   5.492634334197845E-03
   5.561723169000978E-03   5.631681034364682E-03   5.702518861347749E-03
   5.774247718504766E-03   5.846878813615592E-03   5.920423495436620E-03
   5.994893255474003E-03   6.070299729779260E-03   6.146654700767415E-03
   6.223970099058026E-03   6.302258005339387E-03   6.381530652256123E-03
   6.461800426320601E-03   6.543079869848327E-03   6.625381682917709E-03
   6.708718725354498E-03   6.793104018741117E-03   6.878550748451342E-03
   6.965072265710532E-03   7.052682089681784E-03   7.141393909578348E-03
   7.231221586802562E-03   7.322179157111749E-03   7.414280832811323E-03
   7.507541004975489E-03   7.601974245695900E-03   7.697595310358537E-03
   7.794419139949298E-03   7.892460863388545E-03   7.991735799895027E-03
   8.092259461379559E-03   8.194047554868763E-03   8.297115984959335E-03
   8.401480856303170E-03   8.507158476123742E-03   8.614165356764163E-03
   8.722518218267233E-03   8.832233990988010E-03   8.943329818239198E-03
   9.055823058969825E-03   9.169731290477637E-03   9.285072311155549E-03
   9.401864143272707E-03   9.520125035790495E-03   9.639873467213957E-03
   9.761128148479157E-03   9.883908025876726E-03   1.000823228401231E-02
   1.013412034880417E-02   1.026159189051855E-02   1.039066682684321E-02
   1.052136532599953E-02   1.065370780989393E-02   1.078771495730876E-02
   1.092340770713344E-02   1.106080726163621E-02   1.119993508977700E-02
   1.134081293056201E-02   1.148346279644049E-02   1.162790697674419E-02
   1.177416804117017E-02   1.192226884330732E-02   1.207223252420727E-02
   1.222408251600029E-02   1.237784254555650E-02   1.253353663819339E-02
   1.269118912142967E-02   1.285082462878661E-02   1.301246810363699E-02
   1.317614480310263E-02   1.334188030200084E-02   1.350970049684051E-02
   1.367963160986850E-02   1.385170019316696E-02   1.402593313280210E-02
   1.420235765302523E-02   1.438100132052657E-02   1.456189204874262E-02
   1.474505810221768E-02   1.493052810102025E-02   1.511833102521501E-02
   1.530849621939095E-02   1.550105339724655E-02   1.569603264623260E-02
   1.589346443225344E-02   1.609337960442735E-02   1.629580939990667E-02
   1.650078544875882E-02   1.670833977890843E-02   1.691850482114187E-02
   1.713131341417460E-02   1.734679880978222E-02   1.756499467799620E-02
   1.778593511236488E-02   1.800965463528062E-02   1.823618820337406E-02
   1.846557121297609E-02   1.869783950564865E-02   1.893302937378501E-02
   1.917117756628056E-02   1.941232129427492E-02   1.965649823696618E-02
   1.990374654749844E-02   2.015410485892321E-02   2.040761229023603E-02
   2.066430845248882E-02   2.092423345497918E-02   2.118742791151756E-02
   2.145393294677327E-02   2.172379020270026E-02   2.199704184504384E-02
   2.227373056992903E-02   2.255389961053204E-02   2.283759274383545E-02
   2.312485429746851E-02   2.341572915663346E-02   2.371026277111879E-02
   2.400850116240102E-02   2.431049093083555E-02   2.461627926293808E-02
   2.492591393875767E-02   2.523944333934236E-02   2.555691645429887E-02
   2.587838288944732E-02   2.620389287457219E-02   2.653349727127098E-02
   2.686724758090122E-02   2.720519595262781E-02   2.754739519157141E-02
   2.789389876705928E-02   2.824476082098010E-02   2.860003617624361E-02
   2.895978034534689E-02   2.932404953904825E-02   2.969290067515031E-02
   3.006639138739357E-02   3.044458003446165E-02   3.082752570910009E-02
   3.121528824734968E-02   3.160792823789587E-02   3.200550703153613E-02
   3.240808675076572E-02   3.281573029948488E-02   3.322850137282751E-02
   3.364646446711350E-02   3.406968488992680E-02   3.449822877031940E-02
   3.493216306914456E-02   3.537155558951937E-02   3.581647498741897E-02
   3.626699078240460E-02   3.672317336848568E-02   3.718509402511947E-02
   3.765282492834841E-02   3.812643916207760E-02   3.860601072949478E-02
   3.909161456463291E-02   3.958332654407928E-02   4.008122349883113E-02
   4.058538322630048E-02   4.109588450247062E-02   4.161280709420442E-02
   4.213623177170862E-02   4.266624032115403E-02   4.320291555745469E-02
   4.374634133720831E-02   4.429660257179840E-02   4.485378524066248E-02
   4.541797640472622E-02   4.598926422000671E-02   4.656773795138755E-02
   4.715348798656600E-02   4.774660585017687E-02   4.834718421809315E-02
   4.895531693190651E-02   4.957109901359096E-02   5.019462668034935E-02
   5.082599735964833E-02   5.146530970444114E-02   5.211266360858215E-02
   5.276816022243613E-02   5.343190196868244E-02   5.410399255831940E-02
   5.478453700686912E-02   5.547364165078607E-02   5.617141416407306E-02
   5.687796357510472E-02   5.759340028366411E-02   5.831783607819259E-02
   5.905138415325676E-02   5.979415912723595E-02   6.054627706023082E-02
   6.130785547219872E-02   6.207901336131604E-02   6.285987122257171E-02
   6.365055106659541E-02   6.445117643872121E-02   6.526187243829250E-02
   6.608276573820869E-02   6.691398460471780E-02   6.775565891745906E-02
   6.860792018975602E-02   6.947090158916654E-02   7.034473795829012E-02
   7.122956583583705E-02   7.212552347796362E-02   7.303275087987403E-02
   7.395138979769569E-02   7.488158377062865E-02   7.582347814337340E-02
   7.677722008884226E-02   7.774295863115432E-02   7.872084466892178E-02
   7.971103099882770E-02   8.071367233950041E-02   8.172892535568954E-02
   8.275694868274415E-02   8.379790295140076E-02   8.485195081288183E-02
   8.591925696430990E-02   8.699998817444286E-02   8.809431330973080E-02
   8.920240336070265E-02   9.032443146868346E-02   9.146057295284758E-02
   9.261100533761372E-02   9.377590838038227E-02   9.495546409962380E-02
   9.614985680331946E-02   9.735927311775890E-02   9.858390201670211E-02
   9.982393485090578E-02   1.010795653780233E-01   1.023509897928792E-01
   1.036384067581249E-01   1.049420174352806E-01   1.062620255161666E-01
   1.075986372547313E-01   1.089520614992783E-01   1.103225097250991E-01
   1.117101960675176E-01   1.131153373553475E-01   1.145381531447742E-01
   1.159788657536596E-01   1.174377002962797E-01   1.189148847185001E-01
   1.204106498333918E-01   1.219252293572973E-01   1.234588599463490E-01
   1.250117812334460E-01   1.265842358656994E-01   1.281764695423442E-01
   1.297887310531322E-01   1.314212723172045E-01   1.330743484224549E-01
   1.347482176653884E-01   1.364431415914792E-01   1.381593850360395E-01
   1.398972161655993E-01   1.416569065198078E-01   1.434387310538636E-01
   1.452429681814746E-01   1.470698998183630E-01   1.489198114263144E-01
   1.507929920577806E-01   1.526897344010469E-01   1.546103348259626E-01
   1.565550934302524E-01   1.585243140864042E-01   1.605183044891523E-01
   1.625373762035540E-01   1.645818447136722E-01   1.666520294718715E-01
   1.687482539487317E-01   1.708708456835923E-01   1.730201363357308E-01
   1.751964617361836E-01   1.774001619402230E-01   1.796315812804887E-01
   1.818910684207927E-01   1.841789764105980E-01   1.864956627401823E-01
   1.888414893964984E-01   1.912168229197333E-01   1.936220344605831E-01
   1.960574998382447E-01   1.985235995991379E-01   2.010207190763682E-01
   2.035492484499336E-01   2.061095828076935E-01   2.087021222071007E-01
   2.113272717377101E-01   2.139854415844776E-01   2.166770470918490E-01
   2.194025088286614E-01   2.221622526538566E-01   2.249567097830211E-01
   2.277863168557677E-01   2.306515160039574E-01   2.335527549207868E-01
   2.364904869307398E-01   2.394651710604190E-01   2.424772721102725E-01
   2.455272607272166E-01   2.486156134781784E-01   2.517428129245590E-01
   2.549093476976334E-01   2.581157125749031E-01   2.613624085574026E-01
   2.646499429479852E-01   2.679788294305884E-01   2.713495881504968E-01
   2.747627457956192E-01   2.782188356787808E-01   2.817183978210579E-01
   2.852619790361555E-01   2.888501330158471E-01   2.924834204164930E-01
   2.961624089466406E-01   2.998876734557333E-01   3.036597960239302E-01
   3.074793660530558E-01   3.113469803586995E-01   3.152632432634641E-01
   3.192287666913965E-01   3.232441702636011E-01   3.273100813950541E-01
   3.314271353926432E-01   3.355959755544307E-01   3.398172532701738E-01
   3.440916281231044E-01   3.484197679929887E-01   3.528023491604879E-01
   3.572400564128248E-01   3.617335831507867E-01   3.662836314970694E-01
   3.708909124059825E-01   3.755561457745433E-01   3.802800605549555E-01
   3.850633948685153E-01   3.899068961209414E-01   3.948113211191576E-01
   3.997774361895491E-01   4.048060172976982E-01   4.098978501696342E-01
   4.150537304146036E-01   4.202744636493830E-01   4.255608656241632E-01
   4.309137623500069E-01   4.363339902279186E-01   4.418223961795326E-01
   4.473798377794435E-01   4.530071833892095E-01   4.587053122930297E-01
   4.644751148351388E-01   4.703174925589236E-01   4.762333583477884E-01
   4.822236365678002E-01   4.882892632121164E-01   4.944311860472417E-01
   5.006503647611158E-01   5.069477711130641E-01   5.133243890856428E-01
   5.197812150383820E-01   5.263192578634740E-01   5.329395391434130E-01
   5.396430933106160E-01   5.464309678090622E-01   5.533042232579500E-01
   5.602639336174281E-01   5.673111863564007E-01   5.744470826224440E-01
   5.816727374138699E-01   5.889892797539380E-01   5.963978528672756E-01
   6.038996143585057E-01   6.114957363931215E-01   6.191874058806476E-01
   6.269758246600879E-01   6.348622096877237E-01   6.428477932272615E-01
   6.509338230423739E-01   6.591215625916729E-01   6.674122912261190E-01
   6.758073043889301E-01   6.843079138179937E-01   6.929154477508255E-01
   7.016312511321169E-01   7.104566858238764E-01   7.193931308182312E-01
   7.284419824528944E-01   7.376046546293412E-01   7.468825790337437E-01
   7.562772053606629E-01   7.657900015395779E-01   7.754224539642466E-01
   7.851760677249552E-01   7.950523668437003E-01   8.050528945123098E-01
   8.151792133335797E-01   8.254329055654295E-01   8.358155733681287E-01
   8.463288390546482E-01   8.569743453441377E-01   8.677537556186152E-01
   8.786687541828684E-01   8.897210465276266E-01   9.009123595960578E-01
   9.122444420535948E-01   9.237190645611782E-01   9.353380200519222E-01
   9.471031240112574E-01   9.590162147606176E-01   9.710791537446660E-01
   9.832938258221628E-01   9.956621395604728E-01   1.008186027533778E+00
   1.020867446625057E+00   1.033708378331841E+00   1.046710829075835E+00
   1.059876830516424E+00   1.073208439868115E+00   1.086707740221997E+00
   1.100376840871211E+00   1.114217877640545E+00   1.128233013220156E+00
   1.142424437503489E+00   1.156794367929465E+00   1.171345049828943E+00
   1.186078756775578E+00   1.200997790941057E+00   1.216104483454816E+00
   1.231401194768303E+00   1.246890315023774E+00   1.262574264427786E+00
   1.278455493629344E+00   1.294536484102818E+00   1.310819748535690E+00
   1.327307831221152E+00   1.344003308455670E+00   1.360908788941534E+00
   1.378026914194457E+00   1.395360358956344E+00   1.412911831613197E+00
   1.430684074618332E+00   1.448679864920877E+00   1.466902014399676E+00
   1.485353370302663E+00   1.504036815691732E+00   1.522955269893240E+00
   1.542111688954147E+00   1.561509066103901E+00   1.581150432222153E+00
   1.601038856312311E+00   1.621177445981107E+00   1.641569347924151E+00
   1.662217748417605E+00   1.683125873816060E+00   1.704296991056642E+00
   1.725734408169495E+00   1.747441474794663E+00   1.769421582705461E+00
   1.791678166338476E+00   1.814214703330176E+00   1.837034715060319E+00
   1.860141767202171E+00   1.883539470279632E+00   1.907231480231418E+00
   1.931221498982280E+00   1.955513275021459E+00   1.980110603988385E+00
   2.005017329265748E+00   2.030237342580052E+00   2.055774584609680E+00
   2.081633045600659E+00   2.107816765990132E+00   2.134329837037674E+00
   2.161176401464585E+00   2.188360654101169E+00   2.215886842542209E+00
   2.243759267810658E+00   2.271982285029662E+00   2.300560304103090E+00
   2.329497790404556E+00   2.358799265475173E+00   2.388469307730039E+00
   2.418512553173612E+00   2.448933696124125E+00   2.479737489947047E+00
   2.510928747797839E+00   2.542512343374002E+00   2.574493211676595E+00
   2.606876349781364E+00   2.639666817619513E+00   2.672869738768358E+00
   2.706490301251887E+00   2.740533758351379E+00   2.775005429426277E+00
   2.809910700745311E+00   2.845255026328144E+00   2.881043928797562E+00
   2.917283000242379E+00   2.953977903091247E+00   2.991134370997383E+00
   3.028758209734498E+00   3.066855298103945E+00   3.105431588853281E+00
   3.144493109606430E+00   3.184045963805472E+00   3.224096331664349E+00
   3.264650471134530E+00   3.305714718882801E+00   3.347295491281435E+00
   3.389399285410700E+00   3.432032680074097E+00   3.475202336826286E+00
   3.518915001013952E+00   3.563177502829821E+00   3.607996758379842E+00
   3.653379770763886E+00   3.699333631169977E+00   3.745865519982285E+00
   3.792982707903120E+00   3.840692557088941E+00   3.889002522300756E+00
   3.937920152068925E+00   3.987453089872609E+00   4.037609075334129E+00
   4.088395945428242E+00   4.139821635706734E+00   4.191894181538346E+00
   4.244621719364289E+00   4.298012487969642E+00   4.352074829770607E+00
   4.406817192118088E+00   4.462248128617584E+00   4.518376300465683E+00
   4.575210477803447E+00   4.632759541086697E+00   4.691032482473664E+00
   4.750038407230006E+00   4.809786535151497E+00   4.870286202004701E+00
   4.931546860985635E+00   4.993578084196906E+00   5.056389564143356E+00
   5.119991115246499E+00   5.184392675378112E+00   5.249604307412971E+00
   5.315636200801267E+00   5.382498673160693E+00   5.450202171888570E+00
   5.518757275794337E+00   5.588174696752435E+00   5.658465281376130E+00
   5.729640012712288E+00   5.801710011957465E+00   5.874686540195691E+00
   5.948581000157956E+00   6.023404938003977E+00   6.099170045126284E+00
   6.175888159976989E+00   6.253571269917644E+00   6.332231513092203E+00
   6.411881180323706E+00   6.492532717034721E+00   6.574198725191921E+00
   6.656891965275254E+00   6.740625358271703E+00   6.825411987694289E+00
   6.911265101626375E+00   6.998198114791654E+00   7.086224610650327E+00
   7.175358343521438E+00   7.265613240732104E+00   7.357003404793653E+00
   7.449543115605127E+00   7.543246832684639E+00   7.638129197428603E+00
   7.734205035399556E+00   7.831489358642668E+00   7.929997368031343E+00
   8.029744455642492E+00   8.130746207161463E+00   8.233018404317434E+00
   8.336577027349302E+00   8.441438257502574E+00   8.547618479557837E+00
   8.655134284390780E+00   8.764002471564666E+00   8.874240051955251E+00
   8.985864250408721E+00   9.098892508433217E+00   9.213342486923978E+00
   9.329232068923011E+00   9.446579362413303E+00   9.565402703148168E+00
   9.685720657516381E+00   9.807552025443064E+00   9.930915843327343E+00
   1.005583138701676E+01   1.018231817481914E+01   1.031039597055243E+01
   1.044008478663277E+01   1.057140488720154E+01   1.070437679129164E+01
   1.083902127603358E+01   1.097535937990209E+01   1.111341240600323E+01
   1.125320192540322E+01   1.139474978049889E+01   1.153807808843054E+01
   1.168320924453793E+01   1.183016592585943E+01   1.197897109467551E+01
   1.212964800209656E+01   1.228222019169587E+01   1.243671150318854E+01
   1.259314607615623E+01   1.275154835381928E+01   1.291194308685587E+01
   1.307435533726931E+01   1.323881048230420E+01   1.340533421841149E+01
   1.357395256526378E+01   1.374469186982084E+01   1.391757881044632E+01
   1.409264040107649E+01   1.426990399544101E+01   1.444939729133716E+01