<UPF version="2.0.1">
  <PP_INFO>
    Generated using "atomic" code by A. Dal Corso  v.7.2
    Author: ADC
    Generation date: 22Sep2023
    Pseudopotential type: PAW
    Element: Tb
    Functional:  SLA  PW   PSX  PSC
    Suggested minimum cutoff for wavefunctions: 121. Ry
    Suggested minimum cutoff for charge density: 617. Ry
    The Pseudo was generated with a Scalar-Relativistic Calculation
    Local Potential by smoothing AE potential with Bessel fncs, cutoff radius:   1.7000
    Valence configuration: 
    nl pn  l   occ       Rcut    Rcut US       E pseu
    5S  1  0  2.00      1.300      1.600    -3.492837
    6S  2  0  2.00      1.300      1.600    -0.273626
    5P  2  1  6.00      1.400      1.800    -1.826815
    4D  3  2 10.00      1.000      1.200   -10.789732
    5D  4  2  0.00      1.000      1.200    -0.096933
    4F  4  3  9.00      1.100      1.300    -0.225853
    Generation configuration:
    5S  1  0  2.00      1.300      1.600    -3.492747
    6S  2  0  2.00      1.300      1.600    -0.273596
    5P  2  1  6.00      1.400      1.800    -1.826731
    6P  3  1  0.00      1.400      1.800     0.300000
    4D  3  2 10.00      1.000      1.200   -10.789635
    5D  4  2  0.00      1.000      1.200    -0.096896
    4F  4  3  9.00      1.100      1.300    -0.225756
    4F  4  3  0.00      1.100      1.300     1.000000
    Pseudization used: troullier-martins
    <PP_INPUTFILE>
@input
title='Tb',
zed=65.0,
rel=1,
config='[Xe] 4f9 5d0.0 6s2. 6p0.',
iswitch=3,
dft='PBESOL'
/
@inputp
lpaw=.true.,
pseudotype=3,
file_pseudopw='Tb.pbesol-spdfn-kjpaw_psl.1.0.0.UPF',
author='ADC',
lloc=-1,
rcloc=1.7,
which_augfun='PSQ',
rmatch_augfun_nc=.true.,
nlcc=.true.,
new_core_ps=.true.,
rcore=1.2,
tm=.true.
/
8
5S  1  0  2.00  0.00  1.30  1.60  0.0
6S  2  0  2.00  0.00  1.30  1.60  0.0
5P  2  1  6.00  0.00  1.40  1.80  0.0
6P  3  1  0.00  0.30  1.40  1.80  0.0
4D  3  2 10.00  0.00  1.00  1.20  0.0
5D  4  2  0.00  0.00  1.00  1.20  0.0
4F  4  3  9.00  0.00  1.10  1.30  0.0
4F  4  3  0.00  1.00  1.10  1.30  0.0
    </PP_INPUTFILE>
  </PP_INFO>
    <!-- END OF HUMAN READABLE SECTION -->
  <PP_HEADER generated="Generated using 'atomic' code by A. Dal Corso  v.7.2" author="ADC" date="22Sep2023" comment="" element="Tb" pseudo_type="PAW" relativistic="scalar" is_ultrasoft="true" is_paw="true" is_coulomb="false" has_so="false" has_wfc="true" has_gipaw="false" paw_as_gipaw="false" core_correction="true" functional=" SLA  PW   PSX  PSC" z_valence="29.000000000000000" total_psenergy="-1272.7694140245640" wfc_cutoff="121.13836942963640" rho_cutoff="617.06181951599535" l_max="3" l_max_rho="6" l_local="-1" mesh_size="1263" number_of_wfc="6" number_of_proj="8"/>
  <PP_MESH mesh="1263" dx="1.2500000000000001E-002" xmin="-7.0000000000000000" rmax="100.00000000000000" zmesh="65.000000000000000">
    <PP_R>
   1.402895331622333E-05   1.420541582567727E-05   1.438409796025511E-05
   1.456502763940391E-05   1.474823313375415E-05   1.493374306953706E-05
   1.512158643305752E-05   1.531179257522325E-05   1.550439121613093E-05
   1.569941244971007E-05   1.589688674842519E-05   1.609684496803721E-05
   1.629931835242477E-05   1.650433853846611E-05   1.671193756098243E-05
   1.692214785774336E-05   1.713500227453543E-05   1.735053407029435E-05
   1.756877692230165E-05   1.778976493144704E-05   1.801353262755653E-05
   1.824011497478789E-05   1.846954737709386E-05   1.870186568375407E-05
   1.893710619497663E-05   1.917530566756999E-05   1.941650132068638E-05
   1.966073084163730E-05   1.990803239178228E-05   2.015844461249169E-05
   2.041200663118448E-05   2.066875806744195E-05   2.092873903919837E-05
   2.119199016900949E-05   2.145855259039998E-05   2.172846795429049E-05
   2.200177843550576E-05   2.227852673936455E-05   2.255875610835235E-05
   2.284251032887826E-05   2.312983373811650E-05   2.342077123093433E-05
   2.371536826690693E-05   2.401367087742050E-05   2.431572567286488E-05
   2.462157984991637E-05   2.493128119891241E-05   2.524487811131886E-05
   2.556241958729129E-05   2.588395524333140E-05   2.620953532003960E-05
   2.653921068996527E-05   2.687303286555569E-05   2.721105400720493E-05
   2.755332693140415E-05   2.789990511899408E-05   2.825084272352165E-05
   2.860619457970155E-05   2.896601621198427E-05   2.933036384323195E-05
   2.969929440350322E-05   3.007286553894872E-05   3.045113562081841E-05
   3.083416375458214E-05   3.122200978916514E-05   3.161473432629937E-05
   3.201239872999276E-05   3.241506513611745E-05   3.282279646211859E-05
   3.323565641684546E-05   3.365370951050593E-05   3.407702106474642E-05
   3.450565722285852E-05   3.493968496011395E-05   3.537917209422978E-05
   3.582418729596482E-05   3.627480009984973E-05   3.673108091505190E-05
   3.719310103637698E-05   3.766093265540897E-05   3.813464887179013E-05
   3.861432370464305E-05   3.910003210413628E-05   3.959184996319538E-05
   4.008985412936151E-05   4.059412241679880E-05   4.110473361845309E-05
   4.162176751836349E-05   4.214530490412874E-05   4.267542757953059E-05
   4.321221837731558E-05   4.375576117213796E-05   4.430614089366528E-05
   4.486344353984874E-05   4.542775619036072E-05   4.599916702020093E-05
   4.657776531347408E-05   4.716364147734066E-05   4.775688705614321E-05
   4.835759474571047E-05   4.896585840784103E-05   4.958177308496964E-05
   5.020543501501766E-05   5.083694164643049E-05   5.147639165340419E-05
   5.212388495130326E-05   5.277952271227284E-05   5.344340738104698E-05
   5.411564269095582E-05   5.479633368013430E-05   5.548558670793431E-05
   5.618350947154374E-05   5.689021102281434E-05   5.760580178530123E-05
   5.833039357151704E-05   5.906409960040252E-05   5.980703451501739E-05
   6.055931440045359E-05   6.132105680197371E-05   6.209238074337783E-05
   6.287340674560102E-05   6.366425684554518E-05   6.446505461514738E-05
   6.527592518068831E-05   6.609699524234370E-05   6.692839309398107E-05
   6.777024864320625E-05   6.862269343166156E-05   6.948586065557948E-05
   7.035988518659497E-05   7.124490359281916E-05   7.214105416017863E-05
   7.304847691402273E-05   7.396731364100285E-05   7.489770791122713E-05
   7.583980510069311E-05   7.679375241400334E-05   7.775969890736637E-05
   7.873779551188694E-05   7.972819505714961E-05   8.073105229509822E-05
   8.174652392421655E-05   8.277476861401262E-05   8.381594702981115E-05
   8.487022185785802E-05   8.593775783073999E-05   8.701872175312474E-05
   8.811328252782439E-05   8.922161118218679E-05   9.034388089481926E-05
   9.148026702264760E-05   9.263094712831629E-05   9.379610100793289E-05
   9.497591071916156E-05   9.617056060967017E-05   9.738023734593457E-05
   9.860512994240590E-05   9.984542979104442E-05   1.011013306912248E-04
   1.023730288800181E-04   1.036607230628533E-04   1.049646144445666E-04
   1.062849067608390E-04   1.076218063100309E-04   1.089755219854173E-04
   1.103462653078261E-04   1.117342504586906E-04   1.131396943135144E-04
   1.145628164757591E-04   1.160038393111581E-04   1.174629879824609E-04
   1.189404904846165E-04   1.204365776803965E-04   1.219514833364691E-04
   1.234854441599256E-04   1.250386998352648E-04   1.266114930618466E-04
   1.282040695918124E-04   1.298166782684851E-04   1.314495710652515E-04
   1.331030031249328E-04   1.347772327996528E-04   1.364725216912040E-04
   1.381891346919249E-04   1.399273400260896E-04   1.416874092918175E-04
   1.434696175035127E-04   1.452742431348340E-04   1.471015681622078E-04
   1.489518781088876E-04   1.508254620895666E-04   1.527226128555540E-04
   1.546436268405167E-04   1.565888042067980E-04   1.585584488923192E-04
   1.605528686580693E-04   1.625723751361947E-04   1.646172838786912E-04
   1.666879144067100E-04   1.687845902604844E-04   1.709076390498816E-04
   1.730573925055948E-04   1.752341865309750E-04   1.774383612545172E-04
   1.796702610830070E-04   1.819302347553326E-04   1.842186353969788E-04
   1.865358205752015E-04   1.888821523548990E-04   1.912579973551860E-04
   1.936637268066769E-04   1.960997166094934E-04   1.985663473919980E-04
   2.010640045702689E-04   2.035930784083222E-04   2.061539640790897E-04
   2.087470617261682E-04   2.113727765263407E-04   2.140315187528865E-04
   2.167237038396882E-04   2.194497524461424E-04   2.222100905228905E-04
   2.250051493783726E-04   2.278353657462215E-04   2.307011818535034E-04
   2.336030454898146E-04   2.365414100772528E-04   2.395167347412629E-04
   2.425294843823767E-04   2.455801297488557E-04   2.486691475102442E-04
   2.517970203318527E-04   2.549642369501731E-04   2.581712922492455E-04
   2.614186873379859E-04   2.647069296284828E-04   2.680365329152849E-04
   2.714080174556794E-04   2.748219100509852E-04   2.782787441288663E-04
   2.817790598266796E-04   2.853234040758752E-04   2.889123306874525E-04
   2.925464004384962E-04   2.962261811597989E-04   2.999522478245846E-04
   3.037251826383505E-04   3.075455751298374E-04   3.114140222431445E-04
   3.153311284310040E-04   3.192975057492268E-04   3.233137739523389E-04
   3.273805605904181E-04   3.314985011071503E-04   3.356682389391196E-04
   3.398904256163453E-04   3.441657208640862E-04   3.484947927059226E-04
   3.528783175681374E-04   3.573169803854089E-04   3.618114747078324E-04
   3.663625028092905E-04   3.709707757971827E-04   3.756370137235390E-04
   3.803619456975292E-04   3.851463099993869E-04   3.899908541957684E-04
   3.948963352565605E-04   3.998635196731592E-04   4.048931835782356E-04
   4.099861128670074E-04   4.151431033200382E-04   4.203649607275780E-04
   4.256525010154704E-04   4.310065503726434E-04   4.364279453802016E-04
   4.419175331421451E-04   4.474761714177304E-04   4.531047287554968E-04
   4.588040846289801E-04   4.645751295741308E-04   4.704187653284630E-04
   4.763359049719522E-04   4.823274730697060E-04   4.883944058164300E-04
   4.945376511827087E-04   5.007581690631297E-04   5.070569314262671E-04
   5.134349224665551E-04   5.198931387580701E-04   5.264325894102466E-04
   5.330542962255542E-04   5.397592938591545E-04   5.465486299805687E-04
   5.534233654373795E-04   5.603845744209882E-04   5.674333446344618E-04
   5.745707774624865E-04   5.817979881434628E-04   5.891161059437641E-04
   5.965262743341847E-04   6.040296511686126E-04   6.116274088649433E-04
   6.193207345882747E-04   6.271108304364035E-04   6.349989136276545E-04
   6.429862166910757E-04   6.510739876590203E-04   6.592634902621567E-04
   6.675560041269289E-04   6.759528249754988E-04   6.844552648282080E-04
   6.930646522085819E-04   7.017823323509139E-04   7.106096674104634E-04
   7.195480366762920E-04   7.285988367867835E-04   7.377634819478689E-04
   7.470434041539996E-04   7.564400534119012E-04   7.659548979671376E-04
   7.755894245335289E-04   7.853451385254525E-04   7.952235642930679E-04
   8.052262453604982E-04   8.153547446670123E-04   8.256106448112329E-04
   8.359955482984230E-04   8.465110777908809E-04   8.571588763614831E-04
   8.679406077504207E-04   8.788579566251584E-04   8.899126288436690E-04
   9.011063517209778E-04   9.124408742990572E-04   9.239179676201223E-04
   9.355394250033535E-04   9.473070623251113E-04   9.592227183026686E-04
   9.712882547815134E-04   9.835055570262703E-04   9.958765340152701E-04
   1.008403118738836E-03   1.021087268501317E-03   1.033930965226919E-03
   1.046936215769388E-03   1.060105052225578E-03   1.073439532252980E-03
   1.086941739391225E-03   1.100613783387650E-03   1.114457800526945E-03
   1.128475953964956E-03   1.142670434066676E-03   1.157043458748499E-03
   1.171597273824774E-03   1.186334153358719E-03   1.201256400017741E-03
   1.216366345433241E-03   1.231666350564932E-03   1.247158806069742E-03
   1.262846132675366E-03   1.278730781558501E-03   1.294815234727852E-03
   1.311102005411952E-03   1.327593638451854E-03   1.344292710698775E-03
   1.361201831416728E-03   1.378323642690226E-03   1.395660819837116E-03
   1.413216071826598E-03   1.430992141702515E-03   1.448991807011949E-03
   1.467217880239226E-03   1.485673209245367E-03   1.504360677713078E-03
   1.523283205597328E-03   1.542443749581596E-03   1.561845303539863E-03
   1.581490899004407E-03   1.601383605639487E-03   1.621526531720990E-03
   1.641922824622096E-03   1.662575671305066E-03   1.683488298819215E-03
   1.704663974805138E-03   1.726106008005288E-03   1.747817748780981E-03
   1.769802589635884E-03   1.792063965746108E-03   1.814605355496963E-03
   1.837430281026456E-03   1.860542308775642E-03   1.883945050045876E-03
   1.907642161563097E-03   1.931637346049189E-03   1.955934352800547E-03
   1.980536978273911E-03   2.005449066679565E-03   2.030674510582004E-03
   2.056217251508161E-03   2.082081280563272E-03   2.108270639054500E-03
   2.134789419122389E-03   2.161641764380280E-03   2.188831870561749E-03
   2.216363986176204E-03   2.244242413172730E-03   2.272471507612259E-03
   2.301055680348232E-03   2.329999397715795E-03   2.359307182229669E-03
   2.388983613290816E-03   2.419033327901964E-03   2.449461021392159E-03
   2.480271448150414E-03   2.511469422368591E-03   2.543059818793640E-03
   2.575047573489270E-03   2.607437684607234E-03   2.640235213168290E-03
   2.673445283853002E-03   2.707073085802485E-03   2.741123873429208E-03
   2.775602967238013E-03   2.810515754657458E-03   2.845867690881604E-03
   2.881664299722416E-03   2.917911174472851E-03   2.954613978780834E-03
   2.991778447534210E-03   3.029410387756832E-03   3.067515679515926E-03
   3.106100276840853E-03   3.145170208653447E-03   3.184731579710043E-03
   3.224790571555351E-03   3.265353443488355E-03   3.306426533540318E-03
   3.348016259465123E-03   3.390129119742061E-03   3.432771694591228E-03
   3.475950647001706E-03   3.519672723772654E-03   3.563944756567522E-03
   3.608773662981505E-03   3.654166447622433E-03   3.700130203205265E-03
   3.746672111660320E-03   3.793799445255486E-03   3.841519567732519E-03
   3.889839935457638E-03   3.938768098586617E-03   3.988311702244486E-03
   4.038478487720114E-03   4.089276293675797E-03   4.140713057372059E-03
   4.192796815907887E-03   4.245535707476511E-03   4.298937972637038E-03
   4.353011955602047E-03   4.407766105541386E-03   4.463208977902391E-03
   4.519349235746661E-03   4.576195651103704E-03   4.633757106341574E-03
   4.692042595554758E-03   4.751061225969537E-03   4.810822219366983E-03
   4.871334913523899E-03   4.932608763671860E-03   4.994653343974612E-03
   5.057478349024064E-03   5.121093595355072E-03   5.185509022979299E-03
   5.250734696938368E-03   5.316780808876531E-03   5.383657678633161E-03
   5.451375755855213E-03   5.519945621630027E-03   5.589377990138638E-03
   5.659683710329882E-03   5.730873767615585E-03   5.802959285587031E-03
   5.875951527753063E-03   5.949861899300023E-03   6.024701948873831E-03
   6.100483370384507E-03   6.177218004833335E-03   6.254917842163066E-03
   6.333595023131366E-03   6.413261841207821E-03   6.493930744494855E-03
   6.575614337672720E-03   6.658325383969039E-03   6.742076807153071E-03
   6.826881693555075E-03   6.912753294111102E-03   6.999705026433442E-03
   7.087750476907170E-03   7.176903402813056E-03   7.267177734477149E-03
   7.358587577447448E-03   7.451147214697887E-03   7.544871108860098E-03
   7.639773904483229E-03   7.735870430322168E-03   7.833175701654604E-03
   7.931704922627143E-03   8.031473488631022E-03   8.132496988707657E-03
   8.234791207984466E-03   8.338372130141342E-03   8.443255939908101E-03
   8.549459025593410E-03   8.656997981645480E-03   8.765889611244970E-03
   8.876150928930565E-03   8.987799163257478E-03   9.100851759489468E-03
   9.215326382324704E-03   9.331240918655899E-03   9.448613480365199E-03
   9.567462407154160E-03   9.687806269409391E-03   9.809663871104213E-03
   9.933054252736800E-03   1.005799669430535E-02   1.018451071832053E-02
   1.031261609285600E-02   1.044233283463715E-02   1.057368121216880E-02
   1.070668174890219E-02   1.084135522644175E-02   1.097772268779235E-02
   1.111580544064727E-02   1.125562506071757E-02   1.139720339510335E-02
   1.154056256570742E-02   1.168572497269183E-02   1.183271329797802E-02
   1.198155050879085E-02   1.213225986124734E-02   1.228486490399042E-02
   1.243938948186851E-02   1.259585773966127E-02   1.275429412585231E-02
   1.291472339644935E-02   1.307717061885228E-02   1.324166117577013E-02
   1.340822076918705E-02   1.357687542437839E-02   1.374765149397717E-02
   1.392057566209169E-02   1.409567494847505E-02   1.427297671274698E-02
   1.445250865866886E-02   1.463429883847252E-02   1.481837565724342E-02
   1.500476787735897E-02   1.519350462298280E-02   1.538461538461539E-02
   1.557813002370207E-02   1.577407877729891E-02   1.597249226279732E-02
   1.617340148270807E-02   1.637683782950553E-02   1.658283309053279E-02
   1.679141945296849E-02   1.700262950885613E-02   1.721649626019664E-02
   1.743305312410502E-02   1.765233393803188E-02   1.787437296505051E-02
   1.809920489921063E-02   1.832686487095937E-02   1.855738845263047E-02
   1.879081166400262E-02   1.902717097792746E-02   1.926650332602869E-02
   1.950884610447262E-02   1.975423717981141E-02   2.000271489489987E-02
   2.025431807488649E-02   2.050908603328006E-02   2.076705857809237E-02
   2.102827601805840E-02   2.129277916893464E-02   2.156060935987652E-02
   2.183180843989628E-02   2.210641878440193E-02   2.238448330181848E-02
   2.266604544029255E-02   2.295114919448109E-02   2.323983911242574E-02
   2.353216030251353E-02   2.382815844052513E-02   2.412787977677183E-02
   2.443137114332222E-02   2.473867996131975E-02   2.504985424839248E-02
   2.536494262615582E-02   2.568399432780989E-02   2.600705920583218E-02
   2.633418773976716E-02   2.666543104411379E-02   2.700084087631228E-02
   2.734046964483136E-02   2.768437041735707E-02   2.803259692908477E-02
   2.838520359111540E-02   2.874224549895727E-02   2.910377844113492E-02
   2.946985890790610E-02   2.984054410008854E-02   3.021589193799767E-02
   3.059596107049680E-02   3.098081088416119E-02   3.137050151255717E-02
   3.176509384563827E-02   3.216464953925934E-02   3.256923102481038E-02
   3.297890151897168E-02   3.339372503359143E-02   3.381376638568774E-02
   3.423909120757645E-02   3.466976595712629E-02   3.510585792814314E-02
   3.554743526088468E-02   3.599456695270757E-02   3.644732286884833E-02
   3.690577375333997E-02   3.736999124006598E-02   3.784004786395309E-02
   3.831601707230511E-02   3.879797323627922E-02   3.928599166250657E-02
   3.978014860485918E-02   4.028052127636464E-02   4.078718786127089E-02
   4.130022752726265E-02   4.181972043783146E-02   4.234574776480165E-02
   4.287839170101310E-02   4.341773547316461E-02   4.396386335481793E-02
   4.451686067956555E-02   4.507681385436469E-02   4.564381037303798E-02
   4.621793882994511E-02   4.679928893382562E-02   4.738795152181586E-02
   4.798401857364300E-02   4.858758322599645E-02   4.919873978708115E-02
   4.981758375135328E-02   5.044421181444113E-02   5.107872188825464E-02
   5.172121311628355E-02   5.237178588908951E-02   5.303054185999195E-02
   5.369758396095141E-02   5.437301641865343E-02   5.505694477079354E-02
   5.574947588256832E-02   5.645071796337302E-02   5.716078058370929E-02
   5.787977469230637E-02   5.860781263345635E-02   5.934500816456881E-02
   6.009147647394546E-02   6.084733419877811E-02   6.161269944337430E-02
   6.238769179761040E-02   6.317243235561863E-02   6.396704373470785E-02
   6.477165009452246E-02   6.558637715644342E-02   6.641135222323145E-02
   6.724670419891933E-02   6.809256360895288E-02   6.894906262058560E-02
   6.981633506353088E-02   7.069451645087216E-02   7.158374400023798E-02
   7.248415665524223E-02   7.339589510719388E-02   7.431910181708129E-02
   7.525392103783086E-02   7.620049883684789E-02   7.715898311883942E-02
   7.812952364892434E-02   7.911227207603526E-02   8.010738195661309E-02
   8.111500877860138E-02   8.213530998574123E-02   8.316844500217180E-02
   8.421457525734162E-02   8.527386421123113E-02   8.634647737989469E-02
   8.743258236132227E-02   8.853234886162663E-02   8.964594872156123E-02
   9.077355594336951E-02   9.191534671797418E-02   9.307149945250692E-02
   9.424219479818441E-02   9.542761567853648E-02   9.662794731798717E-02
   9.784337727079738E-02   9.907409545037021E-02   1.003202941589248E-01
   1.015821681175451E-01   1.028599144966042E-01   1.041537329465734E-01
   1.054638256292182E-01   1.067903972491852E-01   1.081336550859892E-01
   1.094938090263999E-01   1.108710715972379E-01   1.122656579985821E-01
   1.136777861373946E-01   1.151076766615706E-01   1.165555529944131E-01
   1.180216413695450E-01   1.195061708662581E-01   1.210093734453060E-01
   1.225314839851505E-01   1.240727403186596E-01   1.256333832702715E-01
   1.272136566936227E-01   1.288138075096502E-01   1.304340857451751E-01
   1.320747445719676E-01   1.337360403463077E-01   1.354182326490402E-01
   1.371215843261344E-01   1.388463615297559E-01   1.405928337598512E-01
   1.423612739062598E-01   1.441519582913529E-01   1.459651667132081E-01
   1.478011824893309E-01   1.496602925009213E-01   1.515427872377012E-01
   1.534489608433035E-01   1.553791111612316E-01   1.573335397814002E-01
   1.593125520872568E-01   1.613164573035011E-01   1.633455685444002E-01
   1.654002028627131E-01   1.674806812992330E-01   1.695873289329478E-01
   1.717204749318364E-01   1.738804526043014E-01   1.760675994512480E-01
   1.782822572188216E-01   1.805247719518033E-01   1.827954940476830E-01
   1.850947783114083E-01   1.874229840108227E-01   1.897804749328041E-01
   1.921676194401048E-01   1.945847905289111E-01   1.970323658871237E-01
   1.995107279533713E-01   2.020202639767697E-01   2.045613660774275E-01
   2.071344313077186E-01   2.097398617143194E-01   2.123780644010322E-01
   2.150494515923946E-01   2.177544406980894E-01   2.204934543781684E-01
   2.232669206090911E-01   2.260752727505991E-01   2.289189496134285E-01
   2.317983955278737E-01   2.347140604132182E-01   2.376663998480312E-01
   2.406558751413565E-01   2.436829534047913E-01   2.467481076254719E-01
   2.498518167399824E-01   2.529945657091855E-01   2.561768455940022E-01
   2.593991536321392E-01   2.626619933157825E-01   2.659658744702718E-01
   2.693113133337583E-01   2.726988326378714E-01   2.761289616893947E-01
   2.796022364529703E-01   2.831191996348473E-01   2.866804007676772E-01
   2.902863962963828E-01   2.939377496651026E-01   2.976350314052280E-01
   3.013788192245542E-01   3.051696980975436E-01   3.090082603567333E-01
   3.128951057852866E-01   3.168308417107082E-01   3.208160830997451E-01
   3.248514526544712E-01   3.289375809095899E-01   3.330751063309550E-01
   3.372646754153303E-01   3.415069427914102E-01   3.458025713221019E-01
   3.501522322081035E-01   3.545566050927785E-01   3.590163781683496E-01
   3.635322482834346E-01   3.681049210519254E-01   3.727351109632459E-01
   3.774235414939904E-01   3.821709452209669E-01   3.869780639356676E-01
   3.918456487601707E-01   3.967744602645086E-01   4.017652685855076E-01
   4.068188535471201E-01   4.119360047822793E-01   4.171175218562755E-01
   4.223642143916938E-01   4.276769021949183E-01   4.330564153842255E-01
   4.385035945194972E-01   4.440192907335544E-01   4.496043658651530E-01
   4.552596925936458E-01   4.609861545753389E-01   4.667846465815686E-01
   4.726560746385067E-01   4.786013561687332E-01   4.846214201345841E-01
   4.907172071833000E-01   4.968896697940111E-01   5.031397724265565E-01
   5.094684916721894E-01   5.158768164061687E-01   5.223657479422701E-01
   5.289363001892496E-01   5.355894998092623E-01   5.423263863782852E-01
   5.491480125485525E-01   5.560554442130298E-01   5.630497606719698E-01
   5.701320548015476E-01   5.773034332246308E-01   5.845650164836893E-01
   5.919179392158790E-01   5.993633503303388E-01   6.069024131877008E-01
   6.145363057818759E-01   6.222662209241143E-01   6.300933664293815E-01
   6.380189653050895E-01   6.460442559421847E-01   6.541704923086582E-01
   6.623989441454763E-01   6.707308971649770E-01   6.791676532517736E-01
   6.877105306661671E-01   6.963608642501349E-01   7.051200056359003E-01
   7.139893234571227E-01   7.229702035627592E-01   7.320640492335955E-01
   7.412722814015202E-01   7.505963388715455E-01   7.600376785466183E-01
   7.695977756552741E-01   7.792781239821334E-01   7.890802361013185E-01
   7.990056436127921E-01   8.090558973816685E-01   8.192325677805492E-01
   8.295372449348857E-01   8.399715389714498E-01   8.505370802699151E-01
   8.612355197176024E-01   8.720685289674441E-01   8.830378006991729E-01
   8.941450488838152E-01   9.053920090514994E-01   9.167804385626306E-01
   9.283121168824932E-01   9.399888458592827E-01   9.518124500056597E-01
   9.637847767838295E-01   9.759076968942053E-01   9.881831045677223E-01
   1.000612917861800E+00   1.013199078960057E+00   1.025943554475772E+00
   1.038848335759172E+00   1.051915439208588E+00   1.065146906585518E+00
   1.078544805333659E+00   1.092111228901953E+00   1.105848297071678E+00
   1.119758156287688E+00   1.133842979993782E+00   1.148104968972322E+00
   1.162546351688103E+00   1.177169384636552E+00   1.191976352696323E+00
   1.206969569486295E+00   1.222151377727097E+00   1.237524149607159E+00
   1.253090287153356E+00   1.268852222606356E+00   1.284812418800635E+00
   1.300973369549323E+00   1.317337600033856E+00   1.333907667198537E+00
   1.350686160150076E+00   1.367675700562128E+00   1.384878943084951E+00
   1.402298575760192E+00   1.419937320440890E+00   1.437797933216796E+00
   1.455883204844987E+00   1.474195961185952E+00   1.492739063645130E+00
   1.511515409620001E+00   1.530527932952830E+00   1.549779604389063E+00
   1.569273432041534E+00   1.589012461860475E+00   1.608999778109450E+00
   1.629238503847293E+00   1.649731801416070E+00   1.670482872935225E+00
   1.691494960801902E+00   1.712771348197575E+00   1.734315359601067E+00
   1.756130361307985E+00   1.778219761956733E+00   1.800587013061106E+00
   1.823235609549590E+00   1.846169090311470E+00   1.869391038749769E+00
   1.892905083341178E+00   1.916714898203007E+00   1.940824203667264E+00
   1.965236766861985E+00   1.989956402299830E+00   2.014986972474132E+00
   2.040332388462410E+00   2.065996610537470E+00   2.091983648786233E+00
   2.118297563736288E+00   2.144942466990387E+00   2.171922521868877E+00
   2.199241944060216E+00   2.226905002279710E+00   2.254916018936480E+00
   2.283279370808871E+00   2.311999489728323E+00   2.341080863271841E+00
   2.370528035463214E+00   2.400345607483002E+00   2.430538238387499E+00
   2.461110645836718E+00   2.492067606831513E+00   2.523413958460031E+00
   2.555154598653479E+00   2.587294486951468E+00   2.619838645276941E+00
   2.652792158720836E+00   2.686160176336684E+00   2.719947911945114E+00
   2.754160644948564E+00   2.788803721156175E+00   2.823882553619077E+00
   2.859402623476220E+00   2.895369480810777E+00   2.931788745517384E+00
   2.968666108180255E+00   3.006007330962322E+00   3.043818248505627E+00
   3.082104768842951E+00   3.120872874320998E+00   3.160128622535129E+00
   3.199878147275856E+00   3.240127659487304E+00   3.280883448237632E+00
   3.322151881701755E+00   3.363939408156372E+00   3.406252556987495E+00
   3.449097939710728E+00   3.492482251004279E+00   3.536412269755059E+00
   3.580894860117881E+00   3.625936972587979E+00   3.671545645087075E+00
   3.717728004063027E+00   3.764491265603390E+00   3.811842736562928E+00
   3.859789815705301E+00   3.908339994859189E+00   3.957500860088845E+00
   4.007280092879489E+00   4.057685471337527E+00   4.108724871405879E+00
   4.160406268094661E+00   4.212737736727239E+00   4.265727454202061E+00
   4.319383700270301E+00   4.373714858829553E+00   4.428729419233898E+00
   4.484435977620310E+00   4.540843238251881E+00   4.597960014877855E+00
   4.655795232110767E+00   4.714357926820994E+00   4.773657249548714E+00
   4.833702465933757E+00   4.894502958163355E+00   4.956068226438100E+00
   5.018407890456436E+00   5.081531690917675E+00   5.145449491044078E+00
   5.210171278121963E+00   5.275707165062221E+00   5.342067391980540E+00
   5.409262327797366E+00   5.477302471858140E+00   5.546198455573811E+00
   5.615961044081983E+00   5.686601137929065E+00   5.758129774773418E+00
   5.830558131110085E+00   5.903897524017111E+00   5.978159412923827E+00
   6.053355401401484E+00   6.129497238976246E+00   6.206596822965156E+00
   6.284666200335085E+00   6.363717569585059E+00   6.443763282652374E+00
   6.524815846842531E+00   6.606887926783599E+00   6.689992346405056E+00
   6.774142090941522E+00   6.859350308961808E+00   6.945630314423315E+00
   7.032995588752446E+00   7.121459782951070E+00   7.211036719729492E+00
   7.301740395666353E+00   7.393584983395528E+00   7.486584833820727E+00
   7.580754478357797E+00   7.676108631205262E+00   7.772662191643531E+00
   7.870430246362834E+00   7.969428071820646E+00   8.069671136628623E+00
   8.171175103969556E+00   8.273955834044884E+00   8.378029386552761E+00
   8.483412023197520E+00   8.590120210230554E+00   8.698170621023158E+00
   8.807580138671876E+00   8.918365858636406E+00   9.030545091410906E+00
   9.144135365228742E+00   9.259154428801265E+00   9.375620254091201E+00
   9.493551039120671E+00   9.612965210814783E+00   9.733881427880831E+00
   9.856318583723706E+00   9.980295809398138E+00   1.010583247659784E+01
   1.023294820068249E+01   1.036166284374261E+01   1.049199651770301E+01
   1.062396958746545E+01   1.075760267409055E+01   1.089291665801999E+01
   1.102993268233907E+01   1.116867215608033E+01   1.130915675756883E+01
   1.145140843780934E+01   1.159544942391633E+01   1.174130222258695E+01
   1.188898962361769E+01   1.203853470346549E+01   1.218996082885326E+01
   1.234329166042122E+01   1.249855115642375E+01   1.265576357647296E+01
   1.281495348532937E+01   1.297614575674005E+01   1.313936557732541E+01
   1.330463845051449E+01   1.347199020052994E+01   1.364144697642322E+01
   1.381303525616028E+01   1.398678185075896E+01   1.416271390847817E+01
   1.434085891905982E+01   1.452124471802430E+01   1.470389949101965E+01
   1.488885177822579E+01   1.507613047881391E+01   1.526576485546194E+01
   1.545778453892711E+01   1.565221953267556E+01   1.584910021757067E+01