<UPF version="2.0.1">
  <PP_INFO>
    Generated using "atomic" code by A. Dal Corso  v.7.2
    Author: ADC
    Generation date: 22Sep2023
    Pseudopotential type: USPP
    Element: Tl
    Functional: PBESOL
    Suggested minimum cutoff for wavefunctions:  45. Ry
    Suggested minimum cutoff for charge density: 210. Ry
    The Pseudo was generated with a Scalar-Relativistic Calculation
    Local Potential by smoothing AE potential with Bessel fncs, cutoff radius:   2.1000
    Valence configuration: 
    nl pn  l   occ       Rcut    Rcut US       E pseu
    6S  1  0  2.00      1.700      2.000    -0.705301
    6P  2  1  1.00      2.200      2.400    -0.173507
    5D  3  2 10.00      1.400      1.600    -1.137666
    Generation configuration:
    6S  1  0  2.00      1.700      2.000    -0.705299
    6S  1  0  0.00      1.700      2.000     4.000000
    6P  2  1  1.00      2.200      2.400    -0.173507
    6P  2  1  0.00      2.200      2.400     6.000000
    5D  3  2 10.00      1.400      1.600    -1.137664
    5D  3  2  0.00      1.400      1.600     7.600000
    Pseudization used: troullier-martins
    <PP_INPUTFILE>
@input
title='Tl',
zed=81.,
rel=1,
config='[Xe] 4f14 6s2 6p1 5d10',
iswitch=3,
dft='PBESOL'
/
@inputp
lpaw=.false.,
pseudotype=3,
file_pseudopw='Tl.pbesol-dn-rrkjus_psl.1.0.0.UPF',
author='ADC',
lloc=-1,
rcloc=2.1,
which_augfun='PSQ',
rmatch_augfun_nc=.true.,
nlcc=.true.,
new_core_ps=.true.,
rcore=1.6,
tm=.true.
/
6
6S  1  0  2.00  0.00  1.70  2.00  0.0
6S  1  0  0.00  4.00  1.70  2.00  0.0
6P  2  1  1.00  0.00  2.20  2.40  0.0
6P  2  1  0.00  6.00  2.20  2.40  0.0
5D  3  2 10.00  0.00  1.40  1.60  0.0
5D  3  2  0.00  7.60  1.40  1.60  0.0
    </PP_INPUTFILE>
  </PP_INFO>
    <!-- END OF HUMAN READABLE SECTION -->
  <PP_HEADER generated="Generated using 'atomic' code by A. Dal Corso  v.7.2" author="ADC" date="22Sep2023" comment="" element="Tl" pseudo_type="USPP" relativistic="scalar" is_ultrasoft="true" is_paw="false" is_coulomb="false" has_so="false" has_wfc="false" has_gipaw="false" paw_as_gipaw="false" core_correction="true" functional="PBESOL" z_valence="13.000000000000000" total_psenergy="-116.48802139979705" wfc_cutoff="44.539321866592068" rho_cutoff="210.14187482247817" l_max="2" l_max_rho="4" l_local="-1" mesh_size="1281" number_of_wfc="3" number_of_proj="6"/>
  <PP_MESH mesh="1281" dx="1.2500000000000001E-002" xmin="-7.0000000000000000" rmax="100.00000000000000" zmesh="81.000000000000000">
    <PP_R>
   1.125780204388292E-05   1.139940776134595E-05   1.154279465946398E-05
   1.168798514273153E-05   1.183500189745704E-05   1.198386789530752E-05
   1.213460639689801E-05   1.228724095542607E-05   1.244179542035198E-05
   1.259829394112537E-05   1.275676097095848E-05   1.291722127064714E-05
   1.307969991243963E-05   1.324422228395428E-05   1.341081409214639E-05
   1.357950136732492E-05   1.375031046721979E-05   1.392326808110040E-05
   1.409840123394577E-05   1.427573729066738E-05   1.445530396038487E-05
   1.463712930075571E-05   1.482124172235927E-05   1.500766999313598E-05
   1.519644324288248E-05   1.538759096780308E-05   1.558114303511870E-05
   1.577712968773363E-05   1.597558154896109E-05   1.617652962730815E-05
   1.638000532132088E-05   1.658604042449046E-05   1.679466713022091E-05
   1.700591803685947E-05   1.721982615279011E-05   1.743642490159113E-05
   1.765574812725771E-05   1.787783009949007E-05   1.810270551904819E-05
   1.833040952317391E-05   1.856097769108114E-05   1.879444604951520E-05
   1.903085107838210E-05   1.927022971644855E-05   1.951261936711379E-05
   1.975805790425388E-05   2.000658367813959E-05   2.025823552142872E-05
   2.051305275523375E-05   2.077107519526594E-05   2.103234315805647E-05
   2.129689746725608E-05   2.156477946001382E-05   2.183603099343606E-05
   2.211069445112679E-05   2.238881274981006E-05   2.267042934603589E-05
   2.295558824297038E-05   2.324433399727132E-05   2.353671172605033E-05
   2.383276711392234E-05   2.413254642014404E-05   2.443609648584193E-05
   2.474346474133135E-05   2.505469921352758E-05   2.536984853345011E-05
   2.568896194382135E-05   2.601208930676091E-05   2.633928111157664E-05
   2.667058848265376E-05   2.700606318744303E-05   2.734575764454959E-05
   2.768972493192350E-05   2.803801879515317E-05   2.839069365586341E-05
   2.874780462021869E-05   2.910940748753374E-05   2.947555875899227E-05
   2.984631564647535E-05   3.022173608150103E-05   3.060187872427603E-05
   3.098680297286171E-05   3.137656897245504E-05   3.177123762478642E-05
   3.217087059763578E-05   3.257553033446817E-05   3.298528006419075E-05
   3.340018381103243E-05   3.382030640454776E-05   3.424571348974677E-05
   3.467647153735201E-05   3.511264785418479E-05   3.555431059368201E-05
   3.600152876654528E-05   3.645437225152403E-05   3.691291180633408E-05
   3.737721907871377E-05   3.784736661761905E-05   3.832342788455937E-05
   3.880547726507630E-05   3.929359008036626E-05   3.978784259904971E-05
   4.028831204908825E-05   4.079507662985163E-05   4.130821552433669E-05
   4.182780891153965E-05   4.235393797898438E-05   4.288668493540807E-05
   4.342613302360652E-05   4.397236653344111E-05   4.452547081500902E-05
   4.508553229197955E-05   4.565263847509793E-05   4.622687797585901E-05
   4.680834052035318E-05   4.739711696328597E-05   4.799329930217445E-05
   4.859698069172202E-05   4.920825545837396E-05   4.982721911505627E-05
   5.045396837609959E-05   5.108860117235107E-05   5.173121666647629E-05
   5.238191526845358E-05   5.304079865126346E-05   5.370796976677493E-05
   5.438353286183217E-05   5.506759349454323E-05   5.576025855077365E-05
   5.646163626084781E-05   5.717183621645982E-05   5.789096938779766E-05
   5.861914814088244E-05   5.935648625512575E-05   6.010309894110819E-05
   6.085910285858089E-05   6.162461613469404E-05   6.239975838245449E-05
   6.318465071941545E-05   6.397941578660154E-05   6.478417776767141E-05
   6.559906240832193E-05   6.642419703593606E-05   6.725971057947809E-05
   6.810573358963916E-05   6.896239825923579E-05   6.982983844386554E-05
   7.070818968282204E-05   7.159758922027335E-05   7.249817602670681E-05
   7.341009082064314E-05   7.433347609062418E-05   7.526847611747701E-05
   7.621523699685804E-05   7.717390666208100E-05   7.814463490723145E-05
   7.912757341057264E-05   8.012287575824552E-05   8.113069746826682E-05
   8.215119601482931E-05   8.318453085290700E-05   8.423086344317071E-05
   8.529035727721644E-05   8.636317790311124E-05   8.744949295126081E-05
   8.854947216060122E-05   8.966328740512212E-05   9.079111272072143E-05
   9.193312433239924E-05   9.308950068179353E-05   9.426042245506126E-05
   9.544607261111198E-05   9.664663641019473E-05   9.786230144284561E-05
   9.909325765919951E-05   1.003396973986693E-04   1.016018154200004E-04
   1.028798089317013E-04   1.041738776228584E-04   1.054842236943376E-04
   1.068110518903782E-04   1.081545695305855E-04   1.095149865423242E-04
   1.108925154935199E-04   1.122873716258744E-04   1.136997728884956E-04
   1.151299399719546E-04   1.165780963427680E-04   1.180444682783149E-04
   1.195292849021937E-04   1.210327782200226E-04   1.225551831556915E-04
   1.240967375880690E-04   1.256576823881712E-04   1.272382614567994E-04
   1.288387217626482E-04   1.304593133808970E-04   1.321002895322831E-04
   1.337619066226686E-04   1.354444242831048E-04   1.371481054103988E-04
   1.388732162081934E-04   1.406200262285602E-04   1.423888084141188E-04
   1.441798391406846E-04   1.459933982604521E-04   1.478297691457237E-04
   1.496892387331864E-04   1.515720975687461E-04   1.534786398529271E-04
   1.554091634868395E-04   1.573639701187292E-04   1.593433651911095E-04
   1.613476579884874E-04   1.633771616856906E-04   1.654321933968003E-04
   1.675130742247029E-04   1.696201293112610E-04   1.717536878881187E-04
   1.739140833281449E-04   1.761016531975217E-04   1.783167393084923E-04
   1.805596877727682E-04   1.828308490556099E-04   1.851305780305891E-04
   1.874592340350364E-04   1.898171809261905E-04   1.922047871380505E-04
   1.946224257389443E-04   1.970704744898225E-04   1.995493159032824E-04
   2.020593373033386E-04   2.046009308859414E-04   2.071744937802588E-04
   2.097804281107294E-04   2.124191410598936E-04   2.150910449320187E-04
   2.177965572175205E-04   2.205361006581980E-04   2.233101033132878E-04
   2.261189986263479E-04   2.289632254929862E-04   2.318432283294372E-04
   2.347594571420031E-04   2.377123675973695E-04   2.407024210938024E-04
   2.437300848332442E-04   2.467958318943140E-04   2.499001413062270E-04
   2.530434981236451E-04   2.562263935024659E-04   2.594493247765683E-04
   2.627127955355207E-04   2.660173157032688E-04   2.693634016178120E-04
   2.727515761118820E-04   2.761823685946371E-04   2.796563151343824E-04
   2.831739585423325E-04   2.867358484574269E-04   2.903425414322112E-04
   2.939946010198010E-04   2.976925978619367E-04   3.014371097781486E-04
   3.052287218560420E-04   3.090680265427179E-04   3.129556237373450E-04
   3.168921208848943E-04   3.208781330710537E-04   3.249142831183372E-04
   3.290012016834010E-04   3.331395273555863E-04   3.373299067566984E-04
   3.415729946420442E-04   3.458694540027386E-04   3.502199561692975E-04
   3.546251809165362E-04   3.590858165697837E-04   3.636025601124357E-04
   3.681761172948606E-04   3.728072027446728E-04   3.774965400783962E-04
   3.822448620145295E-04   3.870529104880356E-04   3.919214367662710E-04
   3.968512015663712E-04   4.018429751741164E-04   4.068975375642885E-04
   4.120156785225442E-04   4.171981977688217E-04   4.224459050822967E-04
   4.277596204279139E-04   4.331401740845067E-04   4.385884067745304E-04
   4.441051697954280E-04   4.496913251526449E-04   4.553477456943212E-04
   4.610753152476743E-04   4.668749287570998E-04   4.727474924240082E-04
   4.786939238484198E-04   4.847151521723434E-04   4.908121182249545E-04
   4.969857746696031E-04   5.032370861526694E-04   5.095670294542907E-04
   5.159765936409866E-04   5.224667802202015E-04   5.290386032967924E-04
   5.356930897314861E-04   5.424312793013262E-04   5.492542248621422E-04
   5.561629925130595E-04   5.631586617630790E-04   5.702423256997546E-04
   5.774150911599874E-04   5.846780789029745E-04   5.920324237853269E-04
   5.994792749383947E-04   6.070197959478221E-04   6.146551650353573E-04
   6.223865752429553E-04   6.302152346191903E-04   6.381423664080174E-04
   6.461692092399059E-04   6.542970173253803E-04   6.625270606509893E-04
   6.708606251777468E-04   6.792990130420649E-04   6.878435427592148E-04
   6.964955494293500E-04   7.052563849461147E-04   7.141274182078826E-04
   7.231100353316489E-04   7.322056398696139E-04   7.414156530284932E-04
   7.507415138915799E-04   7.601846796436079E-04   7.697466257984378E-04
   7.794288464296095E-04   7.892328544037971E-04   7.991601816171920E-04
   8.092123792348687E-04   8.193910179331561E-04   8.296976881450587E-04
   8.401340003087679E-04   8.507015851192912E-04   8.614020937832552E-04
   8.722371982769090E-04   8.832085916073730E-04   8.943179880771785E-04
   9.055671235521252E-04   9.169577557325173E-04   9.284916644278077E-04
   9.401706518346954E-04   9.519965428187248E-04   9.639711851994219E-04
   9.760964500390208E-04   9.883742319348220E-04   1.000806449315225E-03
   1.013395044739491E-03   1.026141985201266E-03   1.039049262435931E-03
   1.052118893231813E-03   1.065352919745315E-03   1.078753409820005E-03
   1.092322457309720E-03   1.106062182405737E-03   1.119974731968056E-03
   1.134062279860851E-03   1.148327027292142E-03   1.162771203157737E-03
   1.177397064389502E-03   1.192206896308011E-03   1.207203012979630E-03
   1.222387757578102E-03   1.237763502750664E-03   1.253332650988779E-03
   1.269097635003536E-03   1.285060918105761E-03   1.301224994590918E-03
   1.317592390128842E-03   1.334165662158387E-03   1.350947400287025E-03
   1.367940226695481E-03   1.385146796547454E-03   1.402569798404491E-03
   1.420211954646079E-03   1.438076021895025E-03   1.456164791448180E-03
   1.474481089712588E-03   1.493027778647120E-03   1.511807756209654E-03
   1.530823956809892E-03   1.550079351767868E-03   1.569576949778217E-03
   1.589319797380299E-03   1.609310979434218E-03   1.629553619602843E-03
   1.650050880839883E-03   1.670805965884108E-03   1.691822117759784E-03
   1.713102620283399E-03   1.734650798576768E-03   1.756470019586589E-03
   1.778563692610534E-03   1.800935269829968E-03   1.823588246849344E-03
   1.846526163242409E-03   1.869752603105268E-03   1.893271195616401E-03
   1.917085615603741E-03   1.941199584118860E-03   1.965616869018399E-03
   1.990341285552801E-03   2.015376696962449E-03   2.040727015081316E-03
   2.066396200948180E-03   2.092388265425558E-03   2.118707269826406E-03
   2.145357326548705E-03   2.172342599718043E-03   2.199667305838253E-03
   2.227335714450258E-03   2.255352148799195E-03   2.283720986509929E-03
   2.312446660271074E-03   2.341533658527596E-03   2.370986526182151E-03
   2.400809865305231E-03   2.431008335854248E-03   2.461586656401669E-03
   2.492549604872290E-03   2.523902019289804E-03   2.555648798532751E-03
   2.587794903099973E-03   2.620345355885717E-03   2.653305242964453E-03
   2.686679714385593E-03   2.720473984978197E-03   2.754693335165800E-03
   2.789343111791492E-03   2.824428728953364E-03   2.859955668850480E-03
   2.895929482639479E-03   2.932355791301952E-03   2.969240286522743E-03
   3.006588731579269E-03   3.044406962242057E-03   3.082700887686589E-03
   3.121476491416623E-03   3.160739832199137E-03   3.200497045011008E-03
   3.240754341997622E-03   3.281518013443540E-03   3.322794428755356E-03
   3.364590037456946E-03   3.406911370197200E-03   3.449765039770462E-03
   3.493157742149791E-03   3.537096257533211E-03   3.581587451403153E-03
   3.626638275599172E-03   3.672255769404206E-03   3.718447060644473E-03
   3.765219366803201E-03   3.812579996148394E-03   3.860536348874739E-03
   3.909095918259918E-03   3.958266291835443E-03   4.008055152572219E-03
   4.058470280081039E-03   4.109519551828144E-03   4.161210944366105E-03
   4.213552534580172E-03   4.266552500950303E-03   4.320219124829080E-03
   4.374560791735664E-03   4.429585992666072E-03   4.485303325419895E-03
   4.541721495943733E-03   4.598849319691519E-03   4.656695723001939E-03
   4.715269744493199E-03   4.774580536475327E-03   4.834637366380234E-03
   4.895449618209789E-03   4.957026794002059E-03   5.019378515316041E-03
   5.082514524735047E-03   5.146444687388992E-03   5.211178992495871E-03
   5.276727554922553E-03   5.343100616765278E-03   5.410308548949995E-03
   5.478361852852838E-03   5.547271161941009E-03   5.617047243434243E-03
   5.687700999987236E-03   5.759243471393193E-03   5.831685836308823E-03
   5.905039414001038E-03   5.979315666115588E-03   6.054526198467980E-03
   6.130682762856911E-03   6.207797258900505E-03   6.285881735895670E-03
   6.364948394700794E-03   6.445009589642178E-03   6.526077830444416E-03
   6.608165784185065E-03   6.691286277273917E-03   6.775452297457118E-03
   6.860676995846564E-03   6.946973688974767E-03   7.034355860875593E-03
   7.122837165191195E-03   7.212431427305383E-03   7.303152646503894E-03
   7.395014998161800E-03   7.488032835958437E-03   7.582220694120221E-03
   7.677593289691609E-03   7.774165524834696E-03   7.871952489157700E-03
   7.970969462072741E-03   8.071231915183301E-03   8.172755514701657E-03
   8.275556123896785E-03   8.379649805573023E-03   8.485052824579904E-03
   8.591781650353606E-03   8.699852959490292E-03   8.809283638351888E-03
   8.920090785704601E-03   9.032291715390639E-03   9.145903959033556E-03
   9.260945268777557E-03   9.377433620061345E-03   9.495387214426804E-03
   9.614824482363024E-03   9.735764086186134E-03   9.858224922955275E-03
   9.982226127425345E-03   1.010778707503682E-02   1.023492738494321E-02
   1.036366692307663E-02   1.049402580525183E-02   1.062602440030936E-02
   1.075968333329825E-02   1.089502348869871E-02   1.103206601368538E-02
   1.117083232143160E-02   1.131134409445528E-02   1.145362328800683E-02
   1.159769213349970E-02   1.174357314198412E-02   1.189128910766447E-02
   1.204086311146090E-02   1.219231852461583E-02   1.234567901234568E-02
   1.250096853753870E-02   1.265821136449913E-02   1.281743206273859E-02
   1.297865551081512E-02   1.314190690022049E-02   1.330721173931644E-02
   1.347459585732040E-02   1.364408540834133E-02   1.381570687546644E-02
   1.398948707489909E-02   1.416545316014904E-02   1.434363262627510E-02
   1.452405331418137E-02   1.470674341496740E-02   1.489173147433310E-02
   1.507904639703914E-02   1.526871745142327E-02   1.546077427397364E-02
   1.565524687395951E-02   1.585216563812026E-02   1.605156133541347E-02
   1.625346512182249E-02   1.645790854522473E-02   1.666492355032104E-02
   1.687454248362711E-02   1.708679809852780E-02   1.730172356039474E-02
   1.751935245176862E-02   1.773971877760649E-02   1.796285697059508E-02
   1.818880189653106E-02   1.841758885976878E-02   1.864925360873671E-02
   1.888383234152321E-02   1.912136171153251E-02   1.936187883321196E-02
   1.960542128785116E-02   1.985202712945412E-02   2.010173489068532E-02
   2.035458358889047E-02   2.061061273219313E-02   2.086986232566780E-02
   2.113237287759093E-02   2.139818540577033E-02   2.166734144395430E-02
   2.193988304832147E-02   2.221585280405197E-02   2.249529383198160E-02
   2.277824979533952E-02   2.306476490657065E-02   2.335488393424407E-02
   2.364865221004811E-02   2.394611563587352E-02   2.424732069098579E-02
   2.455231443928755E-02   2.486114453667256E-02   2.517385923847180E-02
   2.549050740699367E-02   2.581113851915873E-02   2.613580267423055E-02
   2.646455060164395E-02   2.679743366893140E-02   2.713450388974942E-02
   2.747581393200579E-02   2.782141712608899E-02   2.817136747320129E-02
   2.852571965379636E-02   2.888452903612336E-02   2.924785168487829E-02
   2.961574436996417E-02   2.998826457536159E-02   3.036547050811050E-02
   3.074742110740534E-02   3.113417605380432E-02   3.152579577855465E-02
   3.192234147303515E-02   3.232387509831731E-02   3.273045939484701E-02
   3.314215789224780E-02   3.355903491924747E-02   3.398115561372972E-02
   3.440858593291175E-02   3.484139266365061E-02   3.527964343287859E-02
   3.572340671816989E-02   3.617275185844080E-02   3.662774906478356E-02
   3.708846943143743E-02   3.755498494689711E-02   3.802736850516088E-02
   3.850569391712093E-02   3.899003592209591E-02   3.948047019950957E-02
   3.997707338071559E-02   4.047992306097128E-02   4.098909781156236E-02
   4.150467719207939E-02   4.202674176284960E-02   4.255537309752441E-02
   4.309065379582520E-02   4.363266749645029E-02   4.418149889014297E-02
   4.473723373292519E-02   4.529995885949687E-02   4.586976219680376E-02
   4.644673277777672E-02   4.703096075524275E-02   4.762253741601202E-02
   4.822155519514142E-02   4.882810769037749E-02   4.944228967678184E-02
   5.006419712153921E-02   5.069392719895322E-02   5.133157830562976E-02
   5.197725007585136E-02   5.263104339714595E-02   5.329306042604993E-02
   5.396340460407107E-02   5.464218067385108E-02   5.532949469553166E-02
   5.602545406332726E-02   5.673016752230482E-02   5.744374518537616E-02
   5.816629855050302E-02   5.889794051811855E-02   5.963878540876894E-02
   6.038894898097539E-02   6.114854844932238E-02   6.191770250277238E-02
   6.269653132321089E-02   6.348515660422582E-02   6.428370157012162E-02
   6.509229099517395E-02   6.591105122312568E-02   6.674011018692798E-02
   6.757959742873093E-02   6.842964412012376E-02   6.929038308263154E-02
   7.016194880846849E-02   7.104447748155224E-02   7.193810699878370E-02
   7.284297699159281E-02   7.375922884775706E-02   7.468700573349321E-02
   7.562645261582700E-02   7.657771628524533E-02   7.754094537863168E-02
   7.851629040249172E-02   7.950390375646993E-02   8.050393975716189E-02
   8.151655466222758E-02   8.254190669480582E-02   8.358015606823795E-02
   8.463146501110103E-02   8.569599779255599E-02   8.677392074801606E-02
   8.786540230513576E-02   8.897061301012921E-02   9.008972555441774E-02
   9.122291480161297E-02   9.237035781484057E-02   9.353223388440554E-02
   9.470872455580774E-02   9.590001365810837E-02   9.710628733265299E-02
   9.832773406215778E-02   9.956454470015895E-02   1.008169125008351E-01
   1.020850331492034E-01   1.033691047916946E-01   1.046693280671158E-01
   1.059859061379987E-01   1.073190447223457E-01   1.086689521257730E-01
   1.100358392740585E-01   1.114199197461004E-01   1.128214098072880E-01
   1.142405284432949E-01   1.156774973942955E-01   1.171325411896114E-01
   1.186058871827964E-01   1.200977655871591E-01   1.216084095117356E-01
   1.231380549977127E-01   1.246869410553093E-01   1.262553097011236E-01
   1.278434059959468E-01   1.294514780830564E-01   1.310797772269878E-01
   1.327285578527945E-01   1.343980775858043E-01   1.360885972918717E-01
   1.378003811181403E-01   1.395336965343159E-01   1.412888143744583E-01
   1.430660088793013E-01   1.448655577391014E-01   1.466877421370296E-01
   1.485328467931054E-01   1.504011600086849E-01   1.522929737115095E-01
   1.542085835013187E-01   1.561482886960398E-01   1.581123923785561E-01
   1.601012014440634E-01   1.621150266480250E-01   1.641541826547258E-01
   1.662189880864409E-01   1.683097655732193E-01   1.704268418032975E-01
   1.725705475741438E-01   1.747412178441458E-01   1.769391917849500E-01
   1.791648128344559E-01   1.814184287504808E-01   1.837003916650969E-01
   1.860110581396517E-01   1.883507892204837E-01   1.907199504953337E-01
   1.931189121504713E-01   1.955480490285362E-01   1.980077406871071E-01
   2.004983714580106E-01   2.030203305073711E-01   2.055740118964215E-01
   2.081598146430747E-01   2.107781427842699E-01   2.134294054391070E-01
   2.161140168727690E-01   2.188323965612549E-01   2.215849692569217E-01
   2.243721650548527E-01   2.271944194600626E-01   2.300521734555434E-01
   2.329458735711714E-01   2.358759719534774E-01   2.388429264362940E-01
   2.418472006122965E-01   2.448892639054362E-01   2.479695916442922E-01
   2.510886651363411E-01   2.542469717431609E-01   2.574450049565856E-01
   2.606832644758102E-01   2.639622562854734E-01   2.672824927347170E-01
   2.706444926172404E-01   2.740487812523662E-01   2.774958905671188E-01
   2.809863591793423E-01   2.845207324818593E-01   2.880995627276879E-01
   2.917234091163364E-01   2.953928378811747E-01   2.991084223779133E-01
   3.028707431741898E-01   3.066803881402821E-01   3.105379525409679E-01
   3.144440391285320E-01   3.183992582369514E-01   3.224042278772592E-01
   3.264595738341087E-01   3.305659297635575E-01   3.347239372920729E-01
   3.389342461167913E-01   3.431975141070332E-01   3.475144074070945E-01
   3.518856005403372E-01   3.563117765145807E-01   3.607936269288264E-01
   3.653318520813207E-01   3.699271610789756E-01   3.745802719481723E-01
   3.792919117469498E-01   3.840628166786131E-01   3.888937322067650E-01
   3.937854131717839E-01   3.987386239087743E-01   4.037541383669898E-01
   4.088327402307693E-01   4.139752230419872E-01   4.191823903240439E-01
   4.244550557074226E-01   4.297940430568154E-01   4.352001865998585E-01
   4.406743310574804E-01   4.462173317758881E-01   4.518300548602227E-01
   4.575133773098839E-01   4.632681871555679E-01   4.690953835980223E-01
   4.749958771485449E-01   4.809705897712595E-01   4.870204550271673E-01
   4.931464182200239E-01   4.993494365440424E-01   5.056304792334544E-01
   5.119905277139607E-01   5.184305757560742E-01   5.249516296304048E-01
   5.315547082648884E-01   5.382408434039939E-01   5.450110797699418E-01
   5.518664752259365E-01   5.588081009414663E-01   5.658370415596731E-01
   5.729543953668269E-01   5.801612744639426E-01   5.874588049405396E-01
   5.948481270506026E-01   6.023303953907464E-01   6.099067790806196E-01
   6.175784619455903E-01   6.253466427017119E-01   6.332125351430333E-01
   6.411773683312529E-01   6.492423867877587E-01   6.574088506880950E-01
   6.656780360588589E-01   6.740512349770893E-01   6.825297557721541E-01
   6.911149232301748E-01   6.998080788010355E-01   7.086105808079782E-01
   7.175238046598517E-01   7.265491430660180E-01   7.356880062539628E-01
   7.449418221896550E-01   7.543120368006589E-01   7.638001142020726E-01
   7.734075369252953E-01   7.831358061496709E-01   7.929864419370611E-01
   8.029609834693459E-01   8.130609892889346E-01   8.232880375422865E-01
   8.336437262264956E-01   8.441296734389904E-01   8.547475176303536E-01
   8.654989178603439E-01   8.763855540571226E-01   8.874091272797416E-01
   8.985713599839474E-01   9.098739962913067E-01   9.213188022617397E-01
   9.329075661694652E-01   9.446420987824183E-01   9.565242336451971E-01
   9.685558273655451E-01   9.807387599044609E-01   9.930749348699421E-01
   1.005566279814422E+00   1.018214746535964E+00   1.031022311383226E+00
   1.043990975564272E+00   1.057122765459267E+00   1.070419732937097E+00
   1.083883955675987E+00   1.097517537488127E+00   1.111322608648417E+00
   1.125301326227314E+00   1.139455874427875E+00   1.153788464927059E+00
   1.168301337221286E+00   1.182996758976381E+00   1.197877026381894E+00
   1.212944464509877E+00   1.228201427678197E+00   1.243650299818384E+00
   1.259293494848144E+00   1.275133457048529E+00   1.291172661445855E+00
   1.307413614198445E+00   1.323858852988204E+00   1.340510947417155E+00
   1.357372499408934E+00   1.374446143615338E+00   1.391734547828016E+00
   1.409240413395297E+00   1.426966475644292E+00   1.444915504308295E+00
   1.463090303959547E+00   1.481493714447476E+00   1.500128611342407E+00
   1.518997906384896E+00   1.538104547940685E+00   1.557451521461385E+00
   1.577041849950976E+00   1.596878594438135E+00   1.616964854454551E+00
   1.637303768519218E+00   1.657898514628834E+00   1.678752310754384E+00
   1.699868415343935E+00   1.721250127831792E+00   1.742900789154037E+00
   1.764823782270543E+00   1.787022532693594E+00   1.809500509023101E+00
   1.832261223488600E+00   1.855308232498037E+00   1.878645137193452E+00
   1.902275584013690E+00   1.926203265264137E+00   1.950431919693672E+00
   1.974965333078848E+00   1.999807338815412E+00   2.024961818517308E+00
   2.050432702623162E+00   2.076223971010438E+00   2.102339653617298E+00
   2.128783831072276E+00   2.155560635331907E+00   2.182674250326326E+00
   2.210128912613045E+00   2.237928912038906E+00   2.266078592410370E+00
   2.294582352172275E+00   2.323444645095068E+00   2.352669980970741E+00
   2.382262926317489E+00   2.412228105093221E+00   2.442570199418096E+00
   2.473293950306072E+00   2.504404158405739E+00   2.535905684750412E+00
   2.567803451517662E+00   2.600102442798454E+00   2.632807705375877E+00
   2.665924349513754E+00   2.699457549755113E+00   2.733412545730706E+00
   2.767794642977744E+00   2.802609213768866E+00   2.837861697951590E+00
   2.873557603798300E+00   2.909702508866896E+00   2.946302060872344E+00
   2.983361978569096E+00   3.020888052644696E+00   3.058886146624572E+00
   3.097362197788205E+00   3.136322218096880E+00   3.175772295133025E+00
   3.215718593051442E+00   3.256167353542460E+00   3.297124896807187E+00
   3.338597622545099E+00   3.380592010953957E+00   3.423114623742395E+00
   3.466172105155179E+00   3.509771183011369E+00   3.553918669755597E+00
   3.598621463522471E+00   3.643886549214473E+00   3.689720999593340E+00
   3.736131976385183E+00   3.783126731399563E+00   3.830712607662548E+00
   3.878897040564126E+00   3.927687559019976E+00   3.977091786647859E+00
   4.027117442958868E+00   4.077772344563567E+00   4.129064406393396E+00
   4.181001642937377E+00   4.233592169494375E+00   4.286844203441174E+00
   4.340766065516405E+00   4.395366181120729E+00   4.450653081633305E+00
   4.506635405744801E+00   4.563321900807274E+00   4.620721424200891E+00
   4.678842944717970E+00   4.737695543964349E+00   4.797288417778380E+00
   4.857630877667858E+00   4.918732352264889E+00   4.980602388799199E+00
   5.043250654589883E+00   5.106686938555911E+00   5.170921152745732E+00
   5.235963333885983E+00   5.301823644949802E+00   5.368512376744798E+00
   5.436039949520974E+00   5.504416914598982E+00   5.573653956018710E+00
   5.643761892208753E+00   5.714751677676785E+00   5.786634404721197E+00
   5.859421305164357E+00   5.933123752107523E+00   6.007753261707991E+00
   6.083321494978478E+00   6.159840259609161E+00   6.237321511812710E+00
   6.315777358192398E+00   6.395220057633852E+00   6.475662023220499E+00
   6.557115824173100E+00   6.639594187813795E+00   6.723110001554685E+00
   6.807676314911590E+00   6.893306341543037E+00   6.980013461314879E+00
   7.067811222391010E+00   7.156713343350202E+00   7.246733715329738E+00
   7.337886404195904E+00   7.430185652741756E+00   7.523645882912692E+00
   7.618281698059798E+00   7.714107885221740E+00   7.811139417435236E+00
   7.909391456074578E+00   8.008879353220728E+00   8.109618654059997E+00
   8.211625099313109E+00   8.314914627694684E+00   8.419503378403649E+00
   8.525407693645116E+00   8.632644121183775E+00   8.741229416929622E+00
   8.851180547556048E+00   8.962514693150881E+00   9.075249249900912E+00
   9.189401832809963E+00   9.304990278451374E+00   9.422032647754959E+00
   9.540547228829011E+00   9.660552539817983E+00   9.782067331795828E+00
   9.905110591696037E+00   1.002970154527832E+01   1.015585966013262E+01
   1.028360464872110E+01   1.041295647145807E+01   1.054393533982903E+01
   1.067656171954866E+01   1.081085633375859E+01   1.094684016626555E+01
   1.108453446481998E+01   1.122396074443620E+01   1.136514079075409E+01
   1.150809666344307E+01   1.165285069964913E+01   1.179942551748491E+01
   1.194784401956391E+01   1.209812939657906E+01   1.225030513092625E+01
   1.240439500037360E+01   1.256042308177668E+01   1.271841375484066E+01
   1.287839170592968E+01   1.304038193192401E+01   1.320440974412610E+01
   1.337050077221526E+01   1.353868096825257E+01   1.370897661073587E+01
   1.388141430870569E+01   1.405602100590322E+01   1.423282398498011E+01
   1.441185087176155E+01   1.459312963956286E+01   1.477668861356029E+01
   1.496255647521702E+01   1.515076226676453E+01   1.534133539574069E+01