<UPF version="2.0.1">
  <PP_INFO>
    Generated using "atomic" code by A. Dal Corso  v.7.2
    Author: ADC
    Generation date: 22Sep2023
    Pseudopotential type: PAW
    Element: Tm
    Functional:  SLA  PW   PSX  PSC
    Suggested minimum cutoff for wavefunctions: 137. Ry
    Suggested minimum cutoff for charge density: 579. Ry
    The Pseudo was generated with a Scalar-Relativistic Calculation
    Local Potential by smoothing AE potential with Bessel fncs, cutoff radius:   1.7000
    Valence configuration: 
    nl pn  l   occ       Rcut    Rcut US       E pseu
    5S  1  0  2.00      1.200      1.500    -3.926616
    6S  2  0  2.00      1.200      1.500    -0.286121
    5P  2  1  6.00      1.200      1.700    -1.979980
    4D  3  2 10.00      1.000      1.100   -12.603728
    5D  4  2  0.00      1.000      1.100    -0.059105
    4F  4  3 13.00      1.000      1.200    -0.230866
    Generation configuration:
    5S  1  0  2.00      1.200      1.500    -3.926394
    6S  2  0  2.00      1.200      1.500    -0.286049
    5P  2  1  6.00      1.200      1.700    -1.979776
    6P  3  1  0.00      1.200      1.700     0.300000
    4D  3  2 10.00      1.000      1.100   -12.603449
    5D  4  2  0.00      1.000      1.100    -0.059012
    4F  4  3 13.00      1.000      1.200    -0.230602
    4F  4  3  0.00      1.000      1.200     1.000000
    Pseudization used: troullier-martins
    <PP_INPUTFILE>
@input
title='Tm',
zed=69.0,
rel=1,
config='[Xe] 4f13.0 5d0.0 6s2. 6p0.',
iswitch=3,
dft='PBESOL'
/
@inputp
lpaw=.true.,
pseudotype=3,
file_pseudopw='Tm.pbesol-spdfn-kjpaw_psl.1.0.0.UPF',
author='ADC',
lloc=-1,
rcloc=1.7,
which_augfun='PSQ',
rmatch_augfun_nc=.true.,
nlcc=.true.,
new_core_ps=.true.,
rcore=1.2,
tm=.true.
/
8
5S  1  0  2.00  0.00  1.20  1.50  0.0
6S  2  0  2.00  0.00  1.20  1.50  0.0
5P  2  1  6.00  0.00  1.20  1.70  0.0
6P  3  1  0.00  0.30  1.20  1.70  0.0
4D  3  2 10.00  0.00  1.00  1.10  0.0
5D  4  2  0.00  0.00  1.00  1.10  0.0
4F  4  3 13.00  0.00  1.00  1.20  0.0
4F  4  3  0.00  1.00  1.00  1.20  0.0
    </PP_INPUTFILE>
  </PP_INFO>
    <!-- END OF HUMAN READABLE SECTION -->
  <PP_HEADER generated="Generated using 'atomic' code by A. Dal Corso  v.7.2" author="ADC" date="22Sep2023" comment="" element="Tm" pseudo_type="PAW" relativistic="scalar" is_ultrasoft="true" is_paw="true" is_coulomb="false" has_so="false" has_wfc="true" has_gipaw="false" paw_as_gipaw="false" core_correction="true" functional=" SLA  PW   PSX  PSC" z_valence="33.000000000000000" total_psenergy="-1656.7556444111483" wfc_cutoff="137.25184792282283" rho_cutoff="579.15649045340490" l_max="3" l_max_rho="6" l_local="-1" mesh_size="1269" number_of_wfc="6" number_of_proj="8"/>
  <PP_MESH mesh="1269" dx="1.2500000000000001E-002" xmin="-7.0000000000000000" rmax="100.00000000000000" zmesh="69.000000000000000">
    <PP_R>
   1.321568066021038E-05   1.338191345897134E-05   1.355023720893597E-05
   1.372067821103267E-05   1.389326309701478E-05   1.406801883362187E-05
   1.424497272679331E-05   1.442415242593495E-05   1.460558592823928E-05
   1.478930158306021E-05   1.497532809634257E-05   1.516369453510752E-05
   1.535443033199435E-05   1.554756528985937E-05   1.574312958643272E-05
   1.594115377903360E-05   1.614166880934498E-05   1.634470600824829E-05
   1.655029710071895E-05   1.675847421078345E-05   1.696926986653876E-05
   1.718271700523497E-05   1.739884897842175E-05   1.761769955715963E-05
   1.783930293729683E-05   1.806369374481231E-05   1.829090704122630E-05
   1.852097832907862E-05   1.875394355747606E-05   1.898983912770957E-05
   1.922870189894190E-05   1.947056919396706E-05   1.971547880504194E-05
   1.996346899979155E-05   2.021457852718839E-05   2.046884662360698E-05
   2.072631301895470E-05   2.098701794287965E-05   2.125100213105657E-05
   2.151830683155198E-05   2.178897381126916E-05   2.206304536247437E-05
   2.234056430940507E-05   2.262157401496134E-05   2.290611838748141E-05
   2.319424188760238E-05   2.348598953520734E-05   2.378140691645980E-05
   2.408054019092658E-05   2.438343609879045E-05   2.469014196815325E-05
   2.500070572243105E-05   2.531517588784231E-05   2.563360160099015E-05
   2.595603261654014E-05   2.628251931499442E-05   2.661311271056387E-05
   2.694786445913914E-05   2.728682686636199E-05   2.763005289579821E-05
   2.797759617721318E-05   2.832951101495170E-05   2.868585239642314E-05
   2.904667600069332E-05   2.941203820718455E-05   2.978199610448491E-05
   3.015660749926854E-05   3.053593092532803E-05   3.092002565272041E-05
   3.130895169702833E-05   3.170276982873746E-05   3.210154158273213E-05
   3.250532926791019E-05   3.291419597691894E-05   3.332820559601357E-05
   3.374742281503933E-05   3.417191313753961E-05   3.460174289099092E-05
   3.503697923716672E-05   3.547769018263164E-05   3.592394458936751E-05
   3.637581218553332E-05   3.683336357636027E-05   3.729667025518406E-05
   3.776580461461592E-05   3.824083995785394E-05   3.872185051013697E-05
   3.920891143034241E-05   3.970209882272997E-05   4.020148974883317E-05
   4.070716223950018E-05   4.121919530708649E-05   4.173766895780062E-05
   4.226266420420533E-05   4.279426307787604E-05   4.333254864221826E-05
   4.387760500544660E-05   4.442951733372671E-05   4.498837186448273E-05
   4.555425591987218E-05   4.612725792042996E-05   4.670746739888444E-05
   4.729497501414708E-05   4.788987256547800E-05   4.849225300683003E-05
   4.910221046137263E-05   4.971984023619905E-05   5.034523883721817E-05
   5.097850398423375E-05   5.161973462621347E-05   5.226903095674972E-05
   5.292649442971512E-05   5.359222777511496E-05   5.426633501513885E-05
   5.494892148041461E-05   5.564009382646614E-05   5.633996005037870E-05
   5.704862950767367E-05   5.776621292939551E-05   5.849282243941389E-05
   5.922857157194300E-05   5.997357528928169E-05   6.072794999977651E-05
   6.149181357601073E-05   6.226528537322231E-05   6.304848624795318E-05
   6.384153857693342E-05   6.464456627620292E-05   6.545769482047342E-05
   6.628105126273440E-05   6.711476425410501E-05   6.795896406393639E-05
   6.881378260016635E-05   6.967935342993023E-05   7.055581180043135E-05
   7.144329466007321E-05   7.234194067985822E-05   7.325189027505528E-05
   7.417328562713987E-05   7.510627070601050E-05   7.605099129248384E-05
   7.700759500107356E-05   7.797623130305536E-05   7.895705154982211E-05
   7.995020899653292E-05   8.095585882605941E-05   8.197415817323345E-05
   8.300526614939978E-05   8.404934386727741E-05   8.510655446613409E-05
   8.617706313727672E-05   8.726103714986317E-05   8.835864587703824E-05
   8.947006082239857E-05   9.059545564679075E-05   9.173500619544561E-05
   9.288889052545483E-05   9.405728893359257E-05   9.524038398448714E-05
   9.643836053914745E-05   9.765140578384735E-05   9.887970925937431E-05
   1.001234628906454E-04   1.013828610166958E-04   1.026581004210453E-04
   1.039493803624449E-04   1.052569026060129E-04   1.065808714547599E-04
   1.079214937815122E-04   1.092789790612359E-04   1.106535394037676E-04
   1.120453895869575E-04   1.134547470902286E-04   1.148818321285579E-04
   1.163268676868864E-04   1.177900795549596E-04   1.192716963626091E-04
   1.207719496154755E-04   1.222910737311816E-04   1.238293060759616E-04
   1.253868870017483E-04   1.269640598837308E-04   1.285610711583806E-04
   1.301781703619582E-04   1.318156101695047E-04   1.334736464343209E-04
   1.351525382279468E-04   1.368525478806408E-04   1.385739410223696E-04
   1.403169866243144E-04   1.420819570408961E-04   1.438691280523335E-04
   1.456787789077331E-04   1.475111923687227E-04   1.493666547536340E-04
   1.512454559822392E-04   1.531478896210530E-04   1.550742529292019E-04
   1.570248469048718E-04   1.589999763323404E-04   1.609999498295986E-04
   1.630250798965749E-04   1.650756829639620E-04   1.671520794426612E-04
   1.692545937738472E-04   1.713835544796611E-04   1.735392942145453E-04
   1.757221498172188E-04   1.779324623633107E-04   1.801705772186535E-04
   1.824368440932463E-04   1.847316170958995E-04   1.870552547895634E-04
   1.894081202473548E-04   1.917905811092890E-04   1.942030096397222E-04
   1.966457827855208E-04   1.991192822349586E-04   2.016238944773568E-04
   2.041600108634744E-04   2.067280276666559E-04   2.093283461447519E-04
   2.119613726028148E-04   2.146275184565855E-04   2.173272002967785E-04
   2.200608399541731E-04   2.228288645655280E-04   2.256317066403201E-04
   2.284698041283259E-04   2.313436004880525E-04   2.342535447560271E-04
   2.372000916169627E-04   2.401837014748008E-04   2.432048405246516E-04
   2.462639808256389E-04   2.493616003746577E-04   2.524981831810654E-04
   2.556742193423067E-04   2.588902051204932E-04   2.621466430199466E-04
   2.654440418657127E-04   2.687829168830708E-04   2.721637897780349E-04
   2.755871888188733E-04   2.790536489186512E-04   2.825637117188115E-04
   2.861179256738084E-04   2.897168461368033E-04   2.933610354464404E-04
   2.970510630147139E-04   3.007875054159383E-04   3.045709464768410E-04
   3.084019773677852E-04   3.122811966951416E-04   3.162092105948228E-04
   3.201866328269920E-04   3.242140848719652E-04   3.282921960273184E-04
   3.324216035062164E-04   3.366029525369793E-04   3.408368964639001E-04
   3.451240968493316E-04   3.494652235770561E-04   3.538609549569570E-04
   3.583119778310058E-04   3.628189876805818E-04   3.673826887351441E-04
   3.720037940822672E-04   3.766830257790630E-04   3.814211149650045E-04
   3.862188019761664E-04   3.910768364609056E-04   3.959959774969938E-04
   4.009769937102257E-04   4.060206633945192E-04   4.111277746335232E-04
   4.162991254237599E-04   4.215355237993112E-04   4.268377879580767E-04
   4.322067463896190E-04   4.376432380046159E-04   4.431481122659434E-04
   4.487222293214042E-04   4.543664601381288E-04   4.600816866386660E-04
   4.658688018387836E-04   4.717287099870062E-04   4.776623267059039E-04
   4.836705791351606E-04   4.897544060764429E-04   4.959147581400875E-04
   5.021525978936381E-04   5.084689000122469E-04   5.148646514309705E-04
   5.213408514989807E-04   5.278985121357136E-04   5.345386579889858E-04
   5.412623265950959E-04   5.480705685409433E-04   5.549644476281835E-04
   5.619450410394494E-04   5.690134395066640E-04   5.761707474814684E-04
   5.834180833077950E-04   5.907565793966120E-04   5.981873824028630E-04
   6.057116534046365E-04   6.133305680845843E-04   6.210453169136258E-04
   6.288571053369619E-04   6.367671539624264E-04   6.447766987512104E-04
   6.528869912109830E-04   6.610992985914407E-04   6.694149040823206E-04
   6.778351070138983E-04   6.863612230600134E-04   6.949945844436445E-04
   7.037365401450721E-04   7.125884561126607E-04   7.215517154762891E-04
   7.306277187634693E-04   7.398178841181800E-04   7.491236475224552E-04
   7.585464630207591E-04   7.680878029471855E-04   7.777491581555092E-04
   7.875320382521375E-04   7.974379718319892E-04   8.074685067173391E-04
   8.176252101996718E-04   8.279096692845694E-04   8.383234909396882E-04
   8.488683023458487E-04   8.595457511512858E-04   8.703575057291006E-04
   8.813052554379416E-04   8.923907108859744E-04   9.036156041981661E-04
   9.149816892869330E-04   9.264907421261966E-04   9.381445610288776E-04
   9.499449669278893E-04   9.618938036606615E-04   9.739929382572429E-04
   9.862442612320319E-04   9.986496868791678E-04   1.011211153571647E-03
   1.023930624064197E-03   1.036810085799960E-03   1.049851551221036E-03
   1.063057058082929E-03   1.076428669772955E-03   1.089968475632644E-03
   1.103678591284208E-03   1.117561158961112E-03   1.131618347842800E-03
   1.145852354393633E-03   1.160265402706095E-03   1.174859744848308E-03
   1.189637661215925E-03   1.204601460888443E-03   1.219753481990006E-03
   1.235096092054737E-03   1.250631688396674E-03   1.266362698484354E-03
   1.282291580320106E-03   1.298420822824126E-03   1.314752946223370E-03
   1.331290502445346E-03   1.348036075516862E-03   1.364992281967778E-03
   1.382161771239850E-03   1.399547226100708E-03   1.417151363063044E-03
   1.434976932809077E-03   1.453026720620344E-03   1.471303546812914E-03
   1.489810267178064E-03   1.508549773428502E-03   1.527524993650208E-03
   1.546738892759945E-03   1.566194472968541E-03   1.585894774249985E-03
   1.605842874816434E-03   1.626041891599185E-03   1.646494980735707E-03
   1.667205338062789E-03   1.688176199615899E-03   1.709410842134820E-03
   1.730912583575647E-03   1.752684783629227E-03   1.774730844246115E-03
   1.797054210168135E-03   1.819658369466628E-03   1.842546854087472E-03
   1.865723240402960E-03   1.889191149770604E-03   1.912954249098990E-03
   1.937016251420732E-03   1.961380916472648E-03   1.986052051283224E-03
   2.011033510767468E-03   2.036329198329249E-03   2.061943066471213E-03
   2.087879117412366E-03   2.114141403713441E-03   2.140734028910099E-03
   2.167661148154132E-03   2.194926968862706E-03   2.222535751375775E-03
   2.250491809621783E-03   2.278799511791705E-03   2.307463281021599E-03
   2.336487596083723E-03   2.365876992086354E-03   2.395636061182414E-03
   2.425769453286994E-03   2.456281876803916E-03   2.487178099361433E-03
   2.518462948557176E-03   2.550141312712486E-03   2.582218141636210E-03
   2.614698447398128E-03   2.647587305112098E-03   2.680889853729048E-03
   2.714611296839957E-03   2.748756903488918E-03   2.783332008996438E-03
   2.818342015793097E-03   2.853792394263682E-03   2.889688683601959E-03
   2.926036492676166E-03   2.962841500905422E-03   3.000109459147142E-03
   3.037846190595620E-03   3.076057591691929E-03   3.114749633045227E-03
   3.153928360365696E-03   3.193599895409188E-03   3.233770436933766E-03
   3.274446261668274E-03   3.315633725293080E-03   3.357339263433172E-03
   3.399569392663736E-03   3.442330711528379E-03   3.485629901570177E-03
   3.529473728375664E-03   3.573869042631980E-03   3.618822781197300E-03
   3.664341968184731E-03   3.710433716059856E-03   3.757105226752053E-03
   3.804363792779817E-03   3.852216798390243E-03   3.900671720712809E-03
   3.949736130927720E-03   3.999417695448887E-03   4.049724177121847E-03
   4.100663436436711E-03   4.152243432756378E-03   4.204472225560223E-03
   4.257357975703376E-03   4.310908946691895E-03   4.365133505973946E-03
   4.420040126247236E-03   4.475637386782898E-03   4.531933974765998E-03
   4.588938686652948E-03   4.646660429545955E-03   4.705108222584779E-03
   4.764291198356002E-03   4.824218604319995E-03   4.884899804255862E-03
   4.946344279724550E-03   5.008561631550355E-03   5.071561581321093E-03
   5.135353972907084E-03   5.199948773999302E-03   5.265356077666833E-03
   5.331586103933947E-03   5.398649201377000E-03   5.466555848741407E-03
   5.535316656578973E-03   5.604942368905819E-03   5.675443864881145E-03
   5.746832160507144E-03   5.819118410350243E-03   5.892313909284048E-03
   5.966430094254185E-03   6.041478546065339E-03   6.117470991190805E-03
   6.194419303604736E-03   6.272335506637500E-03   6.351231774854342E-03
   6.431120435957679E-03   6.512013972713357E-03   6.593925024901068E-03
   6.676866391289364E-03   6.760851031635489E-03   6.845892068710358E-03
   6.932002790349045E-03   7.019196651526995E-03   7.107487276462411E-03
   7.196888460745071E-03   7.287414173491897E-03   7.379078559529700E-03
   7.471895941605280E-03   7.565880822623426E-03   7.661047887913010E-03
   7.757412007521598E-03   7.854988238538946E-03   7.953791827449661E-03
   8.053838212515532E-03   8.155143026187771E-03   8.257722097549609E-03
   8.361591454789662E-03   8.466767327706319E-03   8.573266150243702E-03
   8.681104563059504E-03   8.790299416125122E-03   8.900867771358520E-03
   9.012826905290150E-03   9.126194311762469E-03   9.240987704663388E-03
   9.357225020694087E-03   9.474924422171701E-03   9.594104299867163E-03
   9.714783275878835E-03   9.836980206542244E-03   9.960714185376409E-03
   1.008600454606728E-02   1.021287086548860E-02   1.034133296676091E-02
   1.047141092234888E-02   1.060312505719771E-02   1.073649595190896E-02
   1.087154444595626E-02   1.100829164094158E-02   1.114675890389233E-02
   1.128696787060007E-02   1.142894044900111E-02   1.157269882259967E-02
   1.171826545393410E-02   1.186566308808670E-02   1.201491475623769E-02
   1.216604377926388E-02   1.231907377138259E-02   1.247402864384142E-02
   1.263093260865447E-02   1.278981018238544E-02   1.295068618997849E-02
   1.311358576863710E-02   1.327853437175186E-02   1.344555777287759E-02
   1.361468206976052E-02   1.378593368841615E-02   1.395933938725829E-02
   1.413492626128019E-02   1.431272174628815E-02   1.449275362318841E-02
   1.467505002232804E-02   1.485963942789028E-02   1.504655068234530E-02
   1.523581299095688E-02   1.542745592634579E-02   1.562150943311061E-02
   1.581800383250655E-02   1.601696982718331E-02   1.621843850598234E-02
   1.642244134879458E-02   1.662901023147931E-02   1.683817743084469E-02
   1.704997562969118E-02   1.726443792191825E-02   1.748159781769537E-02
   1.770148924869812E-02   1.792414657340993E-02   1.814960458249080E-02
   1.837789850421334E-02   1.860906400996727E-02   1.884313721983321E-02
   1.908015470822641E-02   1.932015350961164E-02   1.956317112428991E-02
   1.980924552425792E-02   2.005841515914133E-02   2.031071896220252E-02
   2.056619635642403E-02   2.082488726066848E-02   2.108683209591596E-02
   2.135207179157994E-02   2.162064779190247E-02   2.189260206243005E-02
   2.216797709657072E-02   2.244681592223381E-02   2.272916210855318E-02
   2.301505977269484E-02   2.330455358675049E-02   2.359768878471755E-02
   2.389451116956708E-02   2.419506712040062E-02   2.449940359969698E-02
   2.480756816065022E-02   2.511960895459995E-02   2.543557473855505E-02
   2.575551488281216E-02   2.607947937866970E-02   2.640751884623927E-02
   2.673968454235509E-02   2.707602836858293E-02   2.741660287933000E-02
   2.776146129005647E-02   2.811065748559065E-02   2.846424602854853E-02
   2.882228216785930E-02   2.918482184739822E-02   2.955192171472776E-02
   2.992363912994910E-02   3.030003217466459E-02   3.068115966105326E-02
   3.106708114106028E-02   3.145785691570207E-02   3.185354804448845E-02
   3.225421635496332E-02   3.265992445236534E-02   3.307073572941020E-02
   3.348671437619572E-02   3.390792539023177E-02   3.433443458659625E-02
   3.476630860821881E-02   3.520361493629404E-02   3.564642190082537E-02
   3.609479869130192E-02   3.654881536750942E-02   3.700854287047720E-02
   3.747405303356300E-02   3.794541859367684E-02   3.842271320264649E-02
   3.890601143872569E-02   3.939538881824703E-02   3.989092180742184E-02
   4.039268783428770E-02   4.090076530080724E-02   4.141523359511834E-02
   4.193617310393857E-02   4.246366522512616E-02   4.299779238039809E-02
   4.353863802820916E-02   4.408628667679226E-02   4.464082389736277E-02
   4.520233633748979E-02   4.577091173463433E-02   4.634663892985905E-02
   4.692960788170961E-02   4.751990968027063E-02   4.811763656139929E-02
   4.872288192113668E-02   4.933574033030171E-02   4.995630754926778E-02
   5.058468054292524E-02   5.122095749583295E-02   5.186523782755913E-02
   5.251762220821653E-02   5.317821257419198E-02   5.384711214407397E-02
   5.452442543478137E-02   5.521025827789366E-02   5.590471783618801E-02
   5.660791262038340E-02   5.731995250609532E-02   5.804094875100477E-02
   5.877101401224168E-02   5.951026236398857E-02   6.025880931530450E-02
   6.101677182817333E-02   6.178426833578003E-02   6.256141876101513E-02
   6.334834453521386E-02   6.414516861712953E-02   6.495201551214587E-02
   6.576901129173199E-02   6.659628361314043E-02   6.743396173935462E-02
   6.828217655928616E-02   6.914106060822613E-02   7.001074808855483E-02
   7.089137489071023E-02   7.178307861442193E-02   7.268599859021105E-02
   7.360027590116060E-02   7.452605340496074E-02   7.546347575622972E-02
   7.641268942911725E-02   7.737384274019102E-02   7.834708587161111E-02
   7.933257089459718E-02   8.033045179318875E-02   8.134088448830659E-02
   8.236402686211519E-02   8.340003878269175E-02   8.444908212900695E-02
   8.551132081621765E-02   8.658692082128003E-02   8.767605020888333E-02
   8.877887915770995E-02   8.989557998702713E-02   9.102632718361110E-02
   9.217129742901202E-02   9.333066962716034E-02   9.450462493232047E-02
   9.569334677739760E-02   9.689702090259815E-02   9.811583538445323E-02
   9.934998066520555E-02   1.005996495825657E-01   1.018650373998449E-01
   1.031463418364637E-01   1.044437630988473E-01   1.057575039117078E-01
   1.070877695497196E-01   1.084347678695955E-01   1.097987093425630E-01
   1.111798070872526E-01   1.125782769029968E-01   1.139943373035492E-01
   1.154282095512287E-01   1.168801176914909E-01   1.183502885879369E-01
   1.198389519577605E-01   1.213463404076415E-01   1.228726894700925E-01
   1.244182376402594E-01   1.259832264131884E-01   1.275679003215596E-01
   1.291725069738947E-01   1.307972970932483E-01   1.324425245563816E-01
   1.341084464334332E-01   1.357953230280860E-01   1.375034179182395E-01
   1.392329979971958E-01   1.409843335153607E-01   1.427576981224722E-01
   1.445533689103584E-01   1.463716264562327E-01   1.482127548665364E-01
   1.500770418213289E-01   1.519647786192402E-01   1.538762602229857E-01
   1.558117853054544E-01   1.577716562963790E-01   1.597561794295885E-01
   1.617656647908604E-01   1.638004263663708E-01   1.658607820917554E-01
   1.679470539017884E-01   1.700595677806843E-01   1.721986538130347E-01
   1.743646462353846E-01   1.765578834884561E-01   1.787787082700328E-01
   1.810274675885045E-01   1.833045128170902E-01   1.856101997487397E-01
   1.879448886517266E-01   1.903089443259424E-01   1.927027361598955E-01
   1.951266381884306E-01   1.975810291511705E-01   2.000662925516970E-01
   2.025828167174732E-01   2.051309948605189E-01   2.077112251388543E-01
   2.103239107187091E-01   2.129694598375209E-01   2.156482858677224E-01
   2.183608073813303E-01   2.211074482153504E-01   2.238886375380004E-01
   2.267048099157706E-01   2.295564053813251E-01   2.324438695022562E-01
   2.353676534507081E-01   2.383282140738705E-01   2.413260139653644E-01
   2.443615215375224E-01   2.474352110945777E-01   2.505475629067778E-01
   2.536990632854245E-01   2.568902046588644E-01   2.601214856494298E-01
   2.633934111513488E-01   2.667064924096387E-01   2.700612470999857E-01
   2.734581994096360E-01   2.768978801192996E-01   2.803808266860843E-01
   2.839075833274786E-01   2.874787011063816E-01   2.910947380172126E-01
   2.947562590730960E-01   2.984638363941454E-01   3.022180492968614E-01
   3.060194843846468E-01   3.098687356394688E-01   3.137664045146678E-01
   3.177131000289344E-01   3.217094388614734E-01   3.257560454483569E-01
   3.298535520800975E-01   3.340025990004435E-01   3.382038345064163E-01
   3.424579150496123E-01   3.467655053387703E-01   3.511272784436374E-01
   3.555439159001358E-01   3.600161078168529E-01   3.645445529828753E-01
   3.691299589769724E-01   3.737730422781603E-01   3.784745283776521E-01
   3.832351518922145E-01   3.880556566789588E-01   3.929367959515639E-01
   3.978793323979725E-01   4.028840382995608E-01   4.079516956518066E-01
   4.130830962864829E-01   4.182790419953773E-01   4.235403446555789E-01
   4.288678263563330E-01   4.342623195274931E-01   4.397246670695936E-01
   4.452557224855498E-01   4.508563500140241E-01   4.565274247644633E-01
   4.622698328538333E-01   4.680844715450829E-01   4.739722493873358E-01
   4.799340863578596E-01   4.859709140058111E-01   4.920836755977906E-01
   4.982733262652352E-01   5.045408331536528E-01   5.108871755737470E-01
   5.173133451544335E-01   5.238203459977817E-01   5.304091948359136E-01
   5.370809211898637E-01   5.438365675304493E-01   5.506771894411565E-01
   5.576038557830745E-01   5.646176488619133E-01   5.717196645971094E-01
   5.789110126930715E-01   5.861928168125715E-01   5.935662147523160E-01
   6.010323586207365E-01   6.085924150180001E-01   6.162475652183013E-01
   6.239990053544342E-01   6.318479466046886E-01   6.397956153821056E-01
   6.478432535260994E-01   6.559921184965039E-01   6.642434835700509E-01
   6.725986380393185E-01   6.810588874141935E-01   6.896255536258508E-01
   6.982999752333162E-01   7.070835076326154E-01   7.159775232685535E-01
   7.249834118491713E-01   7.341025805628792E-01   7.433364542983435E-01
   7.526864758671230E-01   7.621541062291080E-01   7.717408247208072E-01
   7.814481292864864E-01   7.912775367122353E-01   8.012305828629636E-01
   8.113088229223790E-01   8.215138316359981E-01   8.318472035571919E-01
   8.423105532963476E-01   8.529055157731515E-01   8.636337464720434E-01
   8.744969217008993E-01   8.854967388529474E-01   8.966349166719983E-01
   9.079131955209988E-01   9.193333376539615E-01   9.308971274913326E-01
   9.426063718987973E-01   9.544629004696188E-01   9.664685658105103E-01
   9.786252438311036E-01   9.909348340370757E-01   1.003399259826937E+00
   1.016020468792578E+00   1.028800433023579E+00   1.041741149415349E+00
   1.054844639981156E+00   1.068112952168056E+00   1.081548159176825E+00
   1.095152360285894E+00   1.108927681179361E+00   1.122876274279144E+00
   1.137000319081292E+00   1.151302022496541E+00   1.165783619195149E+00
   1.180447371956060E+00   1.195295572020480E+00   1.210330539449874E+00
   1.225554623488493E+00   1.240970202930444E+00   1.256579686491375E+00
   1.272385513184854E+00   1.288390152703454E+00   1.304596105804664E+00
   1.321005904701630E+00   1.337622113458810E+00   1.354447328392634E+00
   1.371484178477162E+00   1.388735325754882E+00   1.406203465752659E+00
   1.423891327902900E+00   1.441801675970057E+00   1.459937308482451E+00
   1.478301059169561E+00   1.496895797404795E+00   1.515724428653829E+00
   1.534789894928609E+00   1.554095175247023E+00   1.573643286098400E+00
   1.593437281914835E+00   1.613480255548440E+00   1.633775338754628E+00
   1.654325702681435E+00   1.675134558365039E+00   1.696205157231477E+00
   1.717540791604686E+00   1.739144795220950E+00   1.761020543749782E+00
   1.783171455321399E+00   1.805600991060804E+00   1.828312655628582E+00
   1.851309997768537E+00   1.874596610862159E+00   1.898176133490125E+00
   1.922052250000821E+00   1.946228691086022E+00   1.970709234363842E+00
   1.995497704968967E+00   2.020597976150365E+00   2.046013969876478E+00
   2.071749657448029E+00   2.097809060118567E+00   2.124196249722771E+00
   2.150915349312704E+00   2.177970533802043E+00   2.205366030618400E+00
   2.233106120363897E+00   2.261195137483987E+00   2.289637470944746E+00
   2.318437564918648E+00   2.347599919478962E+00   2.377129091302927E+00
   2.407029694383712E+00   2.437306400751383E+00   2.467963941202915E+00
   2.499007106041367E+00   2.530440745824412E+00   2.562269772122209E+00
   2.594499158284879E+00   2.627133940219585E+00   2.660179217177391E+00
   2.693640152550063E+00   2.727521974676819E+00   2.761829977661304E+00
   2.796569522198791E+00   2.831746036413782E+00   2.867365016708199E+00
   2.903432028620172E+00   2.939952707693694E+00   2.976932760359179E+00
   3.014377964825082E+00   3.052294171980793E+00   3.090687306310812E+00
   3.129563366820494E+00   3.168928427973394E+00   3.208788640640394E+00
   3.249150233060830E+00   3.290019511815625E+00   3.331402862812737E+00
   3.373306752284961E+00   3.415737727800270E+00   3.458702419284926E+00
   3.502207540059374E+00   3.546259887887252E+00   3.590866346037541E+00
   3.636033884360066E+00   3.681769560374598E+00   3.728080520373550E+00
   3.774974000538649E+00   3.822457328071583E+00   3.870537922338872E+00
   3.919223296031203E+00   3.968521056337254E+00   4.018438906132377E+00
   4.068984645182167E+00   4.120166171361173E+00   4.171991481887005E+00
   4.224468674569858E+00   4.277605949077859E+00   4.331411608218270E+00
   4.385894059234780E+00   4.441061815121226E+00   4.496923495951687E+00
   4.553487830227453E+00   4.610763656240842E+00   4.668759923456181E+00
   4.727485693908236E+00   4.786950143618100E+00   4.847162564027029E+00
   4.908132363448225E+00   4.969869068536875E+00   5.032382325778769E+00
   5.095681902997518E+00   5.159777690880857E+00   5.224679704526054E+00
   5.290398085004766E+00   5.356943100947670E+00   5.424325150148872E+00
   5.492554761190660E+00   5.561642595088583E+00   5.631599446957229E+00
   5.702436247697050E+00   5.774164065702260E+00   5.846794108590364E+00
   5.920337724953341E+00   5.994806406130852E+00   6.070211788005859E+00
   6.146565652822675E+00   6.223879931028028E+00   6.302166703135198E+00
   6.381438201611578E+00   6.461706812790109E+00   6.542985078804572E+00
   6.625285699549405E+00   6.708621534664052E+00   6.793005605542276E+00
   6.878451097366854E+00   6.964971361169701E+00   7.052579915918075E+00
   7.141290450626910E+00   7.231116826497710E+00   7.322073079084485E+00
   7.414173420486728E+00   7.507432241570173E+00   7.601864114215369E+00
   7.697483793594509E+00   7.794306220477064E+00   7.892346523564195E+00
   7.991620021852736E+00   8.092142227028782E+00   8.193928845891380E+00
   8.296995782806839E+00   8.401359142193716E+00   8.507035231039259E+00
   8.614040561447366E+00   8.722391853218584E+00   8.832106036462726E+00
   8.943200254244111E+00   9.055691865260304E+00   9.169598446554406E+00
   9.284937796261461E+00   9.401727936389550E+00   9.519987115635649E+00
   9.639733812237127E+00   9.760986736858978E+00   9.883764835517326E+00
   1.000808729253992E+01   1.013397353356356E+01   1.026144322856956E+01
   1.039051629495710E+01   1.052121290065538E+01   1.065355346727498E+01
   1.078755867329865E+01   1.092324945731248E+01   1.106064702127756E+01
   1.119977283384275E+01   1.134064863369937E+01   1.148329643297771E+01
   1.162773852068665E+01   1.177399746619629E+01   1.192209612276438E+01
   1.207205763110737E+01   1.222390542301599E+01   1.237766322501669E+01
   1.253335506207887E+01   1.269100526136878E+01   1.285063845605086E+01
   1.301227958913650E+01   1.317595391738163E+01   1.334168701523306E+01
   1.350950477882447E+01   1.367943343002290E+01   1.385149952052576E+01
   1.402572993600980E+01   1.420215190033194E+01   1.438079297978299E+01
   1.456168108739510E+01   1.474484448730306E+01   1.493031179916078E+01