<UPF version="2.0.1">
  <PP_INFO>
    Generated using "atomic" code by A. Dal Corso  v.7.2
    Author: ADC
    Generation date: 22Sep2023
    Pseudopotential type: PAW
    Element: Yb
    Functional:  SLA  PW   PSX  PSC
    Suggested minimum cutoff for wavefunctions: 141. Ry
    Suggested minimum cutoff for charge density: 635. Ry
    The Pseudo was generated with a Scalar-Relativistic Calculation
    Local Potential by smoothing AE potential with Bessel fncs, cutoff radius:   1.8000
    Valence configuration: 
    nl pn  l   occ       Rcut    Rcut US       E pseu
    5S  1  0  2.00      1.100      1.600    -4.040665
    6S  2  0  2.00      1.100      1.600    -0.289399
    5P  2  1  6.00      1.100      1.600    -2.018503
    4D  3  2 10.00      1.000      1.100   -13.068613
    5D  4  2  0.00      1.000      1.100    -0.049980
    4F  4  3 14.00      0.950      1.200    -0.225231
    Generation configuration:
    5S  1  0  2.00      1.100      1.600    -4.040376
    6S  2  0  2.00      1.100      1.600    -0.289302
    5P  2  1  6.00      1.100      1.600    -2.018236
    6P  3  1  0.00      1.100      1.600     0.300000
    4D  3  2 10.00      1.000      1.100   -13.068233
    5D  4  2  0.00      1.000      1.100    -0.049859
    4F  4  3 14.00      0.950      1.200    -0.224877
    4F  4  3  0.00      0.950      1.200     1.000000
    Pseudization used: troullier-martins
    <PP_INPUTFILE>
@input
title='Yb',
zed=70.0,
rel=1,
config='[Xe] 4f14.0 5d0.0 6s2. 6p0.',
iswitch=3,
dft='PBESOL'
/
@inputp
lpaw=.true.,
pseudotype=3,
file_pseudopw='Yb.pbesol-spdfn-kjpaw_psl.1.0.0.UPF',
author='ADC',
lloc=-1,
rcloc=1.8,
which_augfun='PSQ',
rmatch_augfun_nc=.true.,
nlcc=.true.,
new_core_ps=.true.,
rcore=1.2,
tm=.true.
/
8
5S  1  0  2.00  0.00  1.10  1.60  0.0
6S  2  0  2.00  0.00  1.10  1.60  0.0
5P  2  1  6.00  0.00  1.10  1.60  0.0
6P  3  1  0.00  0.30  1.10  1.60  0.0
4D  3  2 10.00  0.00  1.00  1.10  0.0
5D  4  2  0.00  0.00  1.00  1.10  0.0
4F  4  3 14.00  0.00  0.95  1.20  0.0
4F  4  3  0.00  1.00  0.95  1.20  0.0
    </PP_INPUTFILE>
  </PP_INFO>
    <!-- END OF HUMAN READABLE SECTION -->
  <PP_HEADER generated="Generated using 'atomic' code by A. Dal Corso  v.7.2" author="ADC" date="22Sep2023" comment="" element="Yb" pseudo_type="PAW" relativistic="scalar" is_ultrasoft="true" is_paw="true" is_coulomb="false" has_so="false" has_wfc="true" has_gipaw="false" paw_as_gipaw="false" core_correction="true" functional=" SLA  PW   PSX  PSC" z_valence="34.000000000000000" total_psenergy="-1766.0318552319745" wfc_cutoff="140.89789287673875" rho_cutoff="634.55267457150501" l_max="3" l_max_rho="6" l_local="-1" mesh_size="1269" number_of_wfc="6" number_of_proj="8"/>
  <PP_MESH mesh="1269" dx="1.2500000000000001E-002" xmin="-7.0000000000000000" rmax="100.00000000000000" zmesh="70.000000000000000">
    <PP_R>
   1.302688522220738E-05   1.319074326670032E-05   1.335666239166546E-05
   1.352466852230363E-05   1.369478790991457E-05   1.386704713599870E-05
   1.404147311641055E-05   1.421809310556445E-05   1.439693470069301E-05
   1.457802584615935E-05   1.476139483782339E-05   1.494707032746312E-05
   1.513508132725157E-05   1.532545721428995E-05   1.551822773519797E-05
   1.571342301076169E-05   1.591107354064005E-05   1.611121020813046E-05
   1.631386428499439E-05   1.651906743634368E-05   1.672685172558821E-05
   1.693724961944590E-05   1.715029399301573E-05   1.736601813491450E-05
   1.758445575247830E-05   1.780564097702928E-05   1.802960836920878E-05
   1.825639292437749E-05   1.848603007808354E-05   1.871855571159943E-05
   1.895400615752845E-05   1.919241820548181E-05   1.943382910782706E-05
   1.967827658550882E-05   1.992579883394284E-05   2.017643452898402E-05
   2.043022283296964E-05   2.068720340083851E-05   2.094741638632719E-05
   2.121090244824410E-05   2.147770275682246E-05   2.174785900015331E-05
   2.202141339069929E-05   2.229840867189046E-05   2.257888812480310E-05
   2.286289557492235E-05   2.315047539899010E-05   2.344167253193894E-05
   2.373653247391334E-05   2.403510129737916E-05   2.433742565432249E-05
   2.464355278353918E-05   2.495353051801600E-05   2.526740729240458E-05
   2.558523215058957E-05   2.590705475335164E-05   2.623292538612725E-05
   2.656289496686573E-05   2.689701505398539E-05   2.723533785442966E-05
   2.757791623182442E-05   2.792480371473810E-05   2.827605450504567E-05
   2.863172348639770E-05   2.899186623279620E-05   2.935653901727798E-05
   2.972579882070756E-05   3.009970334068049E-05   3.047831100053869E-05
   3.086168095849935E-05   3.124987311689836E-05   3.164294813155024E-05
   3.204096742122576E-05   3.244399317724867E-05   3.285208837321337E-05
   3.326531677482448E-05   3.368374294986047E-05   3.410743227826248E-05
   3.453645096235005E-05   3.497086603716547E-05   3.541074538094798E-05
   3.585615772573998E-05   3.630717266812654E-05   3.676386068011000E-05
   3.722629312012140E-05   3.769454224417031E-05   3.816868121713501E-05
   3.864878412419467E-05   3.913492598240526E-05   3.962718275242127E-05
   4.012563135036447E-05   4.063034965984240E-05   4.114141654411776E-05
   4.165891185843097E-05   4.218291646247781E-05   4.271351223304372E-05
   4.325078207679736E-05   4.379480994324490E-05   4.434568083784726E-05
   4.490348083530258E-05   4.546829709299524E-05   4.604021786461466E-05
   4.661933251394498E-05   4.720573152882832E-05   4.779950653530389E-05
   4.840075031192445E-05   4.900955680425335E-05   4.962602113954362E-05
   5.025023964160183E-05   5.088230984583899E-05   5.152233051451043E-05
   5.217040165214776E-05   5.282662452118475E-05   5.349110165777972E-05
   5.416393688783725E-05   5.484523534323091E-05   5.553510347823044E-05
   5.623364908613548E-05   5.694098131611843E-05   5.765721069027941E-05
   5.838244912091524E-05   5.911680992800624E-05   5.986040785692256E-05
   6.061335909635343E-05   6.137578129646200E-05   6.214779358726812E-05
   6.292951659726294E-05   6.372107247225717E-05   6.452258489446666E-05
   6.533417910183819E-05   6.615598190761780E-05   6.698812172016588E-05
   6.783072856302110E-05   6.868393409521694E-05   6.954787163185376E-05
   7.042267616492932E-05   7.130848438443167E-05   7.220543469969734E-05
   7.311366726103788E-05   7.403332398163892E-05   7.496454855973406E-05
   7.590748650105822E-05   7.686228514158315E-05   7.782909367053893E-05
   7.880806315372531E-05   7.979934655711571E-05   8.080309877075868E-05
   8.181947663297979E-05   8.284863895488773E-05   8.389074654518931E-05
   8.494596223531563E-05   8.601445090486513E-05   8.709637950736625E-05
   8.819191709636430E-05   8.930123485183659E-05   9.042450610693925E-05
   9.156190637509119E-05   9.271361337739838E-05   9.387980707042304E-05
   9.506066967430248E-05   9.625638570122096E-05   9.746714198424039E-05
   9.869312770649331E-05   9.993453443074301E-05   1.011915561293161E-04
   1.024643892144100E-04   1.037532325687842E-04   1.050582875768348E-04
   1.063797581560620E-04   1.077178507889325E-04   1.090727745551423E-04
   1.104447411642867E-04   1.118339649889396E-04   1.132406630981499E-04
   1.146650552913594E-04   1.161073641327459E-04   1.175678149860004E-04
   1.190466360495401E-04   1.205440583921647E-04   1.220603159891621E-04
   1.235956457588662E-04   1.251502875996775E-04   1.267244844275465E-04
   1.283184822139302E-04   1.299325300242261E-04   1.315668800566877E-04
   1.332217876818332E-04   1.348975114823459E-04   1.365943132934786E-04
   1.383124582439670E-04   1.400522147974547E-04   1.418138547944430E-04
   1.435976534947655E-04   1.454038896205981E-04   1.472328454000107E-04
   1.490848066110644E-04   1.509600626264665E-04   1.528589064587847E-04
   1.547816348062307E-04   1.567285480990212E-04   1.586999505463187E-04
   1.606961501837666E-04   1.627174589216197E-04   1.647641925934803E-04
   1.668366710056493E-04   1.689352179870945E-04   1.710601614400517E-04
   1.732118333912586E-04   1.753905700438348E-04   1.775967118298156E-04
   1.798306034633428E-04   1.820925939945296E-04   1.843830368639982E-04
   1.867022899581069E-04   1.890507156648706E-04   1.914286809305833E-04
   1.938365573171562E-04   1.962747210601735E-04   1.987435531276803E-04
   2.012434392797105E-04   2.037747701285608E-04   2.063379411998269E-04
   2.089333529942032E-04   2.115614110500629E-04   2.142225260068245E-04
   2.169171136691135E-04   2.196455950717348E-04   2.224083965454584E-04
   2.252059497836355E-04   2.280386919096517E-04   2.309070655452268E-04
   2.338115188795775E-04   2.367525057394465E-04   2.397304856600137E-04
   2.427459239567012E-04   2.457992917978769E-04   2.488910662784788E-04
   2.520217304945595E-04   2.551917736187719E-04   2.584016909768045E-04
   2.616519841247740E-04   2.649431609275984E-04   2.682757356383487E-04
   2.716502289786037E-04   2.750671682198133E-04   2.785270872656857E-04
   2.820305267356111E-04   2.855780340491347E-04   2.891701635114913E-04
   2.928074764002180E-04   2.964905410528535E-04   3.002199329557433E-04
   3.039962348339596E-04   3.078200367423539E-04   3.116919361577539E-04
   3.156125380723206E-04   3.195824550880800E-04   3.236023075126424E-04
   3.276727234561276E-04   3.317943389293082E-04   3.359677979429872E-04
   3.401937526086269E-04   3.444728632402411E-04   3.488057984575719E-04
   3.531932352905628E-04   3.576358592851450E-04   3.621343646103564E-04
   3.666894541668062E-04   3.713018396965050E-04   3.759722418940759E-04
   3.807013905193641E-04   3.854900245114641E-04   3.903388921041795E-04
   3.952487509429369E-04   4.002203682031689E-04   4.052545207101872E-04
   4.103519950605633E-04   4.155135877450354E-04   4.207401052729613E-04
   4.260323642983387E-04   4.313911917474072E-04   4.368174249478585E-04
   4.423119117596699E-04   4.478755107075841E-04   4.535090911152565E-04
   4.592135332410867E-04   4.649897284157633E-04   4.708385791815338E-04
   4.767609994332297E-04   4.827579145610651E-04   4.888302615952290E-04
   4.949789893523004E-04   5.012050585835006E-04   5.075094421248138E-04
   5.138931250489952E-04   5.203571048194891E-04   5.269023914462860E-04
   5.335300076437375E-04   5.402409889903583E-04   5.470363840906380E-04
   5.539172547388858E-04   5.608846760851402E-04   5.679397368031617E-04
   5.750835392605407E-04   5.823171996909461E-04   5.896418483685365E-04
   5.970586297845702E-04   6.045687028262331E-04   6.121732409577169E-04
   6.198734324035768E-04   6.276704803343917E-04   6.355656030547646E-04
   6.435600341936832E-04   6.516550228972772E-04   6.598518340240017E-04
   6.681517483422711E-04   6.765560627305846E-04   6.850660903801639E-04
   6.936831610001425E-04   7.024086210253369E-04   7.112438338266278E-04
   7.201901799239911E-04   7.292490572022059E-04   7.384218811292772E-04
   7.477100849776054E-04   7.571151200479401E-04   7.666384558961448E-04
   7.762815805628213E-04   7.860460008058180E-04   7.959332423356628E-04
   8.059448500539622E-04   8.160823882947899E-04   8.263474410691212E-04
   8.367416123123365E-04   8.472665261348389E-04   8.579238270758278E-04
   8.687151803602567E-04   8.796422721590319E-04   8.907068098524779E-04
   9.019105222971196E-04   9.132551600958224E-04   9.247424958713222E-04
   9.363743245432052E-04   9.481524636083663E-04   9.600787534249965E-04
   9.721550575001456E-04   9.843832627808940E-04   9.967652799491953E-04
   1.009303043720423E-03   1.021998513145674E-03   1.034853671917878E-03
   1.047870528681745E-03   1.061051117347627E-03   1.074397497409320E-03
   1.087911754265862E-03   1.101595999547382E-03   1.115452371445045E-03
   1.129483035045153E-03   1.143690182667437E-03   1.158076034207618E-03
   1.172642837484269E-03   1.187392868590037E-03   1.202328432247291E-03
   1.217451862168241E-03   1.232765521419579E-03   1.248271802791720E-03
   1.263973129172676E-03   1.279871953926639E-03   1.295970761277322E-03
   1.312272066696127E-03   1.328778417295193E-03   1.345492392225381E-03
   1.362416603079281E-03   1.379553694299269E-03   1.396906343590715E-03
   1.414477262340376E-03   1.432269196040053E-03   1.450284924715587E-03
   1.468527263361235E-03   1.486999062379524E-03   1.505703208026633E-03
   1.524642622863374E-03   1.543820266211847E-03   1.563239134617843E-03
   1.582902262319057E-03   1.602812721719196E-03   1.622973623868054E-03
   1.643388118947606E-03   1.664059396764243E-03   1.684990687247180E-03
   1.706185260953137E-03   1.727646429577381E-03   1.749377546471171E-03
   1.771382007165733E-03   1.793663249902819E-03   1.816224756171937E-03
   1.839070051254346E-03   1.862202704773881E-03   1.885626331254718E-03
   1.909344590686150E-03   1.933361189094467E-03   1.957679879122036E-03
   1.982304460613647E-03   2.007238781210260E-03   2.032486736950195E-03
   2.058052272877904E-03   2.083939383660392E-03   2.110152114211384E-03
   2.136694560323359E-03   2.163570869307524E-03   2.190785240641835E-03
   2.218341926627186E-03   2.246245233051824E-03   2.274499519864148E-03
   2.303109201853955E-03   2.332078749342263E-03   2.361412688879808E-03
   2.391115603954322E-03   2.421192135706717E-03   2.451646983656269E-03
   2.482484906434931E-03   2.513710722530879E-03   2.545329311041407E-03
   2.577345612435298E-03   2.609764629324782E-03   2.642591427247204E-03
   2.675831135456529E-03   2.709488947724790E-03   2.743570123153632E-03
   2.778079986996052E-03   2.813023931488487E-03   2.848407416693360E-03
   2.884235971352221E-03   2.920515193749630E-03   2.957250752587897E-03
   2.994448387872826E-03   3.032113911810616E-03   3.070253209716010E-03
   3.108872240931900E-03   3.147977039760485E-03   3.187573716406140E-03
   3.227668457930156E-03   3.268267529217465E-03   3.309377273955556E-03
   3.351004115625683E-03   3.393154558506545E-03   3.435835188690603E-03
   3.479052675113154E-03   3.522813770594380E-03   3.567125312894482E-03
   3.611994225782093E-03   3.657427520116144E-03   3.703432294941309E-03
   3.750015738597249E-03   3.797185129841811E-03   3.844947838988341E-03
   3.893311329057323E-03   3.942283156942474E-03   3.991870974591535E-03
   4.042082530201900E-03   4.092925669431287E-03   4.144408336623648E-03
   4.196538576050471E-03   4.249324533167725E-03   4.302774455888604E-03
   4.356896695872275E-03   4.411699709828856E-03   4.467192060840770E-03
   4.523382419700762E-03   4.580279566266727E-03   4.637892390833568E-03
   4.696229895522345E-03   4.755301195686852E-03   4.815115521337922E-03
   4.875682218585628E-03   4.937010751099636E-03   4.999110701587935E-03
   5.061991773294126E-03   5.125663791513597E-03   5.190136705128735E-03
   5.255420588163462E-03   5.321525641357329E-03   5.388462193759386E-03
   5.456240704342130E-03   5.524871763635736E-03   5.594366095382843E-03
   5.664734558214185E-03   5.735988147345240E-03   5.808137996294276E-03
   5.881195378621982E-03   5.955171709692977E-03   6.030078548459508E-03
   6.105927599267526E-03   6.182730713685536E-03   6.260499892356422E-03
   6.339247286872569E-03   6.418985201674596E-03   6.499726095973910E-03
   6.581482585699515E-03   6.664267445469267E-03   6.748093610585924E-03
   6.832974179058345E-03   6.918922413648038E-03   7.005951743941519E-03
   7.094075768448713E-03   7.183308256727727E-03   7.273663151536418E-03
   7.365154571010919E-03   7.457796810871662E-03   7.551604346657110E-03
   7.646591835985575E-03   7.742774120845532E-03   7.840166229914666E-03
   7.938783380908167E-03   8.038640982956516E-03   8.139754639013185E-03
   8.242140148292668E-03   8.345813508739086E-03   8.450790919525934E-03
   8.557088783587226E-03   8.664723710180478E-03   8.773712517481970E-03
   8.884072235214577E-03   8.995820107308719E-03   9.108973594596769E-03
   9.223550377541315E-03   9.339568358997821E-03   9.457045667011917E-03
   9.576000657651995E-03   9.696451917877354E-03   9.818418268442460E-03
   9.941918766837745E-03   1.006697271026734E-02   1.019359963866433E-02
   1.032181933774389E-02   1.045165184209488E-02   1.058311743831026E-02
   1.071623666815689E-02   1.085103033178527E-02   1.098751949097959E-02
   1.112572547244864E-02   1.126566987115824E-02   1.140737455370539E-02
   1.155086166173504E-02   1.169615361539975E-02   1.184327311686286E-02
   1.199224315384582E-02   1.214308700321998E-02   1.229582823464369E-02
   1.245049071424512E-02   1.260709860835136E-02   1.276567638726451E-02
   1.292624882908514E-02   1.308884102358397E-02   1.325347837612219E-02
   1.342018661162108E-02   1.358899177858163E-02   1.375992025315460E-02
   1.393299874326190E-02   1.410825429276974E-02   1.428571428571429E-02
   1.446540645058049E-02   1.464735886463471E-02   1.483159995831179E-02
   1.501815851965750E-02   1.520706369882656E-02   1.539834501263760E-02
   1.559203234918503E-02   1.578815597250926E-02   1.598674652732545E-02
   1.618783504381181E-02   1.639145294245818E-02   1.659763203897548E-02
   1.680640454926702E-02   1.701780309446227E-02   1.723186070601401E-02
   1.744861083085957E-02   1.766808733664693E-02   1.789032451702664E-02
   1.811535709701029E-02   1.834322023839631E-02   1.857394954526416E-02
   1.880758106953746E-02   1.904415131661719E-02   1.928369725108577E-02
   1.952625630248280E-02   1.977186637115360E-02   2.002056583417106E-02
   2.027239355133226E-02   2.052738887123036E-02   2.078559163740288E-02
   2.104704219455737E-02   2.131178139487530E-02   2.157985060439533E-02
   2.185129170947685E-02   2.212614712334476E-02   2.240445979271670E-02
   2.268627320451349E-02   2.297163139265405E-02   2.326057894493587E-02
   2.355316101000183E-02   2.384942330439490E-02   2.414941211970131E-02
   2.445317432978379E-02   2.476075739810566E-02   2.507220938514712E-02
   2.538757895591484E-02   2.570691538754585E-02   2.603026857700728E-02
   2.635768904889287E-02   2.668922796331746E-02   2.702493712391100E-02
   2.736486898591281E-02   2.770907666436793E-02   2.805761394242641E-02
   2.841053527974703E-02   2.876789582100682E-02   2.912975140451737E-02
   2.949615857094982E-02   2.986717457216938E-02   3.024285738018107E-02
   3.062326569618799E-02   3.100845895976347E-02   3.139849735813861E-02
   3.179344183560670E-02   3.219335410304584E-02   3.259829664756149E-02
   3.300833274225007E-02   3.342352645608560E-02   3.384394266393059E-02
   3.426964705667283E-02   3.470070615148984E-02   3.513718730224216E-02
   3.557915870999760E-02   3.602668943368785E-02   3.647984940089895E-02
   3.693870941879781E-02   3.740334118519574E-02   3.787381729975154E-02
   3.835021127531531E-02   3.883259754941493E-02   3.932105149588724E-02
   3.981564943665502E-02   4.031646865365285E-02   4.082358740090237E-02
   4.133708491673944E-02   4.185704143619579E-02   4.238353820353526E-02
   4.291665748494903E-02   4.345648258140951E-02   4.400309784168616E-02
   4.455658867552565E-02   4.511704156699670E-02   4.568454408800392E-02
   4.625918491197090E-02   4.684105382769534E-02   4.743024175337930E-02
   4.802684075083472E-02   4.863094403986883E-02   4.924264601284967E-02
   4.986204224945488E-02   5.048922953160676E-02   5.112430585859400E-02
   5.176737046238487E-02   5.241852382313209E-02   5.307786768487292E-02
   5.374550507142735E-02   5.442154030249518E-02   5.510607900995676E-02
   5.579922815437793E-02   5.650109604172253E-02   5.721179234027613E-02
   5.793142809778109E-02   5.866011575878873E-02   5.939796918222873E-02
   6.014510365919943E-02   6.090163593098318E-02   6.166768420728635E-02
   6.244336818471081E-02   6.322880906545625E-02   6.402412957625807E-02
   6.482945398756439E-02   6.564490813295272E-02   6.647061942879241E-02
   6.730671689415349E-02   6.815333117096575E-02   6.901059454443262E-02
   6.987864096370008E-02   7.075760606278733E-02   7.164762718177947E-02
   7.254884338828688E-02   7.346139549917559E-02   7.438542610256929E-02
   7.532107958012986E-02   7.626850212961685E-02   7.722784178773096E-02
   7.819924845324579E-02   7.918287391042891E-02   8.017887185275935E-02
   8.118739790694211E-02   8.220860965722472E-02   8.324266667002114E-02
   8.428973051884311E-02   8.534996480954746E-02   8.642353520589929E-02
   8.751060945545695E-02   8.861135741578388E-02   8.972595108098809E-02
   9.085456460859756E-02   9.199737434677234E-02   9.315455886185875E-02
   9.432629896629192E-02   9.551277774684674E-02   9.671418059324677E-02
   9.793069522713119E-02   9.916251173138622E-02   1.004098225798472E-01
   1.016728226673714E-01   1.029517093402924E-01   1.042466824272548E-01
   1.055579442704379E-01   1.068856997571727E-01   1.082301563519550E-01
   1.095915241288632E-01   1.109700158043825E-01   1.123658467706413E-01
   1.137792351290683E-01   1.152104017244696E-01   1.166595701795378E-01
   1.181269669297925E-01   1.196128212589609E-01   1.211173653348055E-01
   1.226408342453985E-01   1.241834660358572E-01   1.257455017455373E-01
   1.273271854456962E-01   1.289287642776304E-01   1.305504884912904E-01
   1.321926114843841E-01   1.338553898419705E-01   1.355390833765504E-01
   1.372439551686644E-01   1.389702716079984E-01   1.407183024350083E-01
   1.424883207830675E-01   1.442806032211436E-01   1.460954297970144E-01
   1.479330840810242E-01   1.497938532103939E-01   1.516780279340859E-01
   1.535859026582336E-01   1.555177754921450E-01   1.574739482948801E-01
   1.594547267224195E-01   1.614604202754227E-01   1.634913423475874E-01
   1.655478102746200E-01   1.676301453838173E-01   1.697386730442771E-01
   1.718737227177363E-01   1.740356280100496E-01   1.762247267233181E-01
   1.784413609086687E-01   1.806858769197032E-01   1.829586254666149E-01
   1.852599616709876E-01   1.875902451212861E-01   1.899498399290398E-01
   1.923391147857387E-01   1.947584430204395E-01   1.972082026581014E-01
   1.996887764786521E-01   2.022005520767972E-01   2.047439219225850E-01
   2.073192834227275E-01   2.099270389826992E-01   2.125675960696121E-01
   2.152413672758828E-01   2.179487703837026E-01   2.206902284303147E-01
   2.234661697741167E-01   2.262770281615919E-01   2.291232427950811E-01
   2.320052584014123E-01   2.349235253013866E-01   2.378784994801449E-01
   2.408706426584150E-01   2.439004223646551E-01   2.469683120081095E-01
   2.500747909527756E-01   2.532203445923092E-01   2.564054644258665E-01
   2.596306481349009E-01   2.628963996609296E-01   2.662032292842716E-01
   2.695516537037840E-01   2.729421961175952E-01   2.763753863048545E-01
   2.798517607085146E-01   2.833718625191476E-01   2.869362417598239E-01
   2.905454553720518E-01   2.942000673028005E-01   2.979006485926205E-01
   3.016477774648661E-01   3.054420394160478E-01   3.092840273073154E-01
   3.131743414570924E-01   3.171135897348809E-01   3.211023876562375E-01
   3.251413584789533E-01   3.292311333004371E-01   3.333723511563246E-01
   3.375656591203322E-01   3.418117124053593E-01   3.461111744658711E-01
   3.504647171015625E-01   3.548730205623264E-01   3.593367736545485E-01
   3.638566738487299E-01   3.684334273884723E-01   3.730677494008285E-01
   3.777603640080400E-01   3.825120044406879E-01   3.873234131522558E-01
   3.921953419351443E-01   3.971285520381385E-01   4.021238142853522E-01
   4.071819091966760E-01   4.123036271097291E-01   4.174897683033563E-01
   4.227411431226711E-01   4.280585721056718E-01   4.334428861114565E-01
   4.388949264500419E-01   4.444155450138237E-01   4.500056044106852E-01
   4.556659780987786E-01   4.613975505230103E-01   4.672012172532310E-01
   4.730778851241759E-01   4.790284723771566E-01   4.850539088035364E-01
   4.911551358900175E-01   4.973331069657436E-01   5.035887873512649E-01
   5.099231545093701E-01   5.163371981978133E-01   5.228319206239720E-01
   5.294083366014370E-01   5.360674737085858E-01   5.428103724491400E-01
   5.496380864147449E-01   5.565516824496003E-01   5.635522408171507E-01
   5.706408553688848E-01   5.778186337152491E-01   5.850866973987114E-01
   5.924461820690117E-01   5.998982376606001E-01   6.074440285723255E-01
   6.150847338493709E-01   6.228215473674787E-01   6.306556780195041E-01
   6.385883499042979E-01   6.466208025179824E-01   6.547542909476216E-01
   6.629900860673282E-01   6.713294747368478E-01   6.797737600026243E-01
   6.883242613014117E-01   6.969823146664351E-01   7.057492729361455E-01
   7.146265059656116E-01   7.236154008405524E-01   7.327173620940814E-01
   7.419338119261641E-01   7.512661904258350E-01   7.607159557962242E-01
   7.702845845823938E-01   7.799735719020605E-01   7.897844316792070E-01
   7.997186968806308E-01   8.097779197554839E-01   8.199636720778034E-01
   8.302775453921141E-01   8.407211512621066E-01   8.512961215224427E-01
   8.620041085337437E-01   8.728467854407624E-01   8.838258464338269E-01
   8.949430070135560E-01   9.062000042589049E-01   9.175985970985993E-01
   9.291405665859573E-01   9.408277161771957E-01   9.526618720132173E-01
   9.646448832049450E-01   9.767786221222603E-01   9.890649846865520E-01
   1.001505890666969E+00   1.014103283980385E+00   1.026859132995130E+00
   1.039775430838568E+00   1.052854195708512E+00   1.066097471188584E+00
   1.079507326567524E+00   1.093085857162513E+00   1.106835184646585E+00
   1.120757457380131E+00   1.134854850746591E+00   1.149129567492362E+00
   1.163583838070974E+00   1.178219920991616E+00   1.193040103172018E+00
   1.208046700295800E+00   1.223242057174295E+00   1.238628548112927E+00
   1.254208577282213E+00   1.269984579093405E+00   1.285959018578883E+00
   1.302134391777321E+00   1.318513226123684E+00   1.335098080844168E+00
   1.351891547356059E+00   1.368896249672670E+00   1.386114844813335E+00
   1.403550023218572E+00   1.421204509170485E+00   1.439081061218416E+00
   1.457182472609996E+00   1.475511571727584E+00   1.494071222530203E+00
   1.512864325001058E+00   1.531893815600637E+00   1.551162667725566E+00
   1.570673892173194E+00   1.590430537612034E+00   1.610435691058133E+00
   1.630692478357415E+00   1.651204064674110E+00   1.671973654985313E+00
   1.693004494581762E+00   1.714299869574937E+00   1.735863107410500E+00
   1.757697577388236E+00   1.779806691188506E+00   1.802193903405317E+00
   1.824862712086129E+00   1.847816659278414E+00   1.871059331583123E+00
   1.894594360715095E+00   1.918425424070507E+00   1.942556245301502E+00
   1.966990594897982E+00   1.991732290776788E+00   2.016785198878243E+00
   2.042153233770200E+00   2.067840359259731E+00   2.093850589012445E+00
   2.120187987179666E+00   2.146856669033443E+00   2.173860801609566E+00
   2.201204604358699E+00   2.228892349805645E+00   2.256928364216964E+00
   2.285317028276952E+00   2.314062777772119E+00   2.343170104284314E+00
   2.372643555892516E+00   2.402487737883507E+00   2.432707313471445E+00
   2.463307004526491E+00   2.494291592312635E+00   2.525665918234749E+00
   2.557434884595095E+00   2.589603455359305E+00   2.622176656932000E+00
   2.655159578942205E+00   2.688557375038578E+00   2.722375263694714E+00
   2.756618529024523E+00   2.791292521607871E+00   2.826402659326654E+00
   2.861954428211312E+00   2.897953383298070E+00   2.934405149496905E+00
   2.971315422470437E+00   3.008689969523925E+00   3.046534630506372E+00
   3.084855318723059E+00   3.123658021859488E+00   3.162948802916960E+00
   3.202733801159961E+00   3.243019233075402E+00   3.283811393343984E+00
   3.325116655823747E+00   3.366941474545980E+00   3.409292384723712E+00
   3.452176003772811E+00   3.495599032346005E+00   3.539568255379862E+00
   3.584090543154923E+00   3.629172852369247E+00   3.674822227225357E+00
   3.721045800530954E+00   3.767850794813418E+00   3.815244523448316E+00
   3.863234391802186E+00   3.911827898389579E+00   3.961032636044771E+00
   4.010856293108136E+00   4.061306654627442E+00   4.112391603574333E+00
   4.164119122076002E+00   4.216497292662462E+00   4.269534299529437E+00
   4.323238429817141E+00   4.377618074905208E+00   4.432681731723806E+00
   4.488438004081345E+00   4.544895604008829E+00   4.602063353121093E+00
   4.659950183995262E+00   4.718565141566413E+00   4.777917384540929E+00
   4.838016186827536E+00   4.898870938986349E+00   4.960491149696216E+00
   5.022886447240412E+00   5.086066581011130E+00   5.150041423032825E+00
   5.214820969504698E+00   5.280415342362703E+00   5.346834790861031E+00
   5.414089693173651E+00   5.482190558015889E+00   5.551148026286412E+00
   5.620972872729950E+00   5.691676007620799E+00   5.763268478467644E+00
   5.835761471739722E+00   5.909166314614697E+00   5.983494476748633E+00
   6.058757572068065E+00   6.134967360584771E+00   6.212135750233267E+00
   6.290274798731413E+00   6.369396715464537E+00   6.449513863393079E+00
   6.530638760984414E+00   6.612784084168851E+00   6.695962668320243E+00
   6.780187510261613E+00   6.865471770295848E+00   6.951828774262103E+00
   7.039272015617954E+00   7.127815157547744E+00   7.217472035097564E+00
   7.308256657336917E+00   7.400183209547743E+00   7.493266055440864E+00
   7.587519739400302E+00   7.682958988755963E+00   7.779598716084706E+00
   7.877454021540554E+00   7.976540195214086E+00   8.076872719521504E+00
   8.178467271623884E+00   8.281339725876663E+00   8.385506156310127E+00
   8.490982839140974E+00   8.597786255315460E+00   8.705933093084687E+00
   8.815440250612053E+00   8.926324838613727E+00   9.038604183032200E+00
   9.152295827743441E+00   9.267417537298272E+00   9.383987299697997E+00
   9.502023329205169E+00   9.621544069189563E+00   9.742568195009936E+00
   9.865114616932205E+00   9.989202483084084E+00   1.011485118244713E+01
   1.024208034788628E+01   1.037090985921745E+01   1.050135984631391E+01
   1.063345069225153E+01   1.076720303649373E+01   1.090263777811645E+01
   1.103977607907357E+01   1.117863936750367E+01   1.131924934107803E+01
   1.146162797039113E+01   1.160579750239349E+01   1.175178046386775E+01
   1.189959966494870E+01   1.204927820268719E+01   1.220083946465931E+01
   1.235430713262060E+01   1.250970518620637E+01   1.266705790667870E+01
   1.282638988072026E+01   1.298772600427618E+01   1.315109148644401E+01
   1.331651185341269E+01   1.348401295245114E+01   1.365362095594682E+01
   1.382536236549538E+01   1.399926401604149E+01   1.417535308007180E+01
   1.435365707186088E+01   1.453420385177016E+01   1.471702163060134E+01