
     Program BANDS v.7.1 starts on 22Sep2023 at 13:54: 9 

     This program is part of the open-source Quantum ESPRESSO suite
     for quantum simulation of materials; please cite
         "P. Giannozzi et al., J. Phys.:Condens. Matter 21 395502 (2009);
         "P. Giannozzi et al., J. Phys.:Condens. Matter 29 465901 (2017);
         "P. Giannozzi et al., J. Chem. Phys. 152 154105 (2020);
          URL http://www.quantum-espresso.org", 
     in publications or presentations arising from this work. More details at
     http://www.quantum-espresso.org/quote

     Parallel version (MPI & OpenMP), running on      10 processor cores
     Number of MPI processes:                10
     Threads/MPI process:                     1

     MPI processes distributed on     1 nodes
     R & G space division:  proc/nbgrp/npool/nimage =      10
     11648 MiB available memory on the printing compute node when the environment starts


     Reading xml data from directory:

     ./work/pwscf.save/
     Message from routine volume:
     axis vectors are left-handed
     file C.pbe-n-kjpaw_psl.1.0.0.UPF: wavefunction(s)  2S 2P renormalized

     IMPORTANT: XC functional enforced from input :
     Exchange-correlation= PBE
                           (   1   4   3   4   0   0   0)
     Any further DFT definition will be discarded
     Please, verify this is what you really want


     Parallelization info
     --------------------
     sticks:   dense  smooth     PW     G-vecs:    dense   smooth      PW
     Min          51      25      8                  762      263      52
     Max          52      26      9                  764      265      55
     Sum         511     253     85                 7631     2637     531

     Using Slab Decomposition


     Check: negative core charge=   -0.000014
     Reading collected, re-writing distributed wavefunctions
     high-symmetry point:  0.0000 1.0000 0.5000   x coordinate   0.0000
     high-symmetry point:  0.5000-0.5000 0.5000   x coordinate   1.5811
     high-symmetry point:  0.0000 0.0000 0.0000   x coordinate   2.4472
     high-symmetry point:  0.0000 0.0000 1.0000   x coordinate   3.4472
     high-symmetry point:  1.0000 0.5000 0.0000   x coordinate   4.9472
     high-symmetry point:  0.7500 0.7500 0.0000   x coordinate   5.3007

     Plottable bands (eV) written to file bands.out.gnu
     Bands written to file bands.out

 **************************************************************************

                    xk=(   0.00000,   1.00000,   0.50000  )

     zone border point and non-symmorphic group 
     symmetry decomposition not available

 **************************************************************************

 **************************************************************************

                    xk=(   0.02500,   0.92500,   0.50000  )

     point group C_1 (1)    
     there are  1 classes
     the character table:

       E    
A      1.00

     the symmetry operations in each class and the name of the first element:

     E        1
                                                                 

     Band symmetry, C_1 (1)     point group:

     e(  1 -  1) =      0.74115  eV     1   --> A              
     e(  2 -  2) =      1.98289  eV     1   --> A              
     e(  3 -  3) =      4.63446  eV     1   --> A              
     e(  4 -  4) =      5.80207  eV     1   --> A              
     e(  5 -  5) =     23.43090  eV     1   --> A              
     e(  6 -  6) =     24.35139  eV     1   --> A              
     e(  7 -  7) =     25.88163  eV     1   --> A              
     e(  8 -  8) =     26.34303  eV     1   --> A              

 **************************************************************************

 **************************************************************************

                    xk=(   0.05000,   0.85000,   0.50000  )

     Band symmetry, C_1 (1)     point group:

     e(  1 -  1) =     -0.03552  eV     1   --> A              
     e(  2 -  2) =      2.30001  eV     1   --> A              
     e(  3 -  3) =      4.60387  eV     1   --> A              
     e(  4 -  4) =      6.70783  eV     1   --> A              
     e(  5 -  5) =     22.68378  eV     1   --> A              
     e(  6 -  6) =     24.21945  eV     1   --> A              
     e(  7 -  7) =     26.28161  eV     1   --> A              
     e(  8 -  8) =     27.16099  eV     1   --> A              

 **************************************************************************

 **************************************************************************

                    xk=(   0.07500,   0.77500,   0.50000  )

     Band symmetry, C_1 (1)     point group:

     e(  1 -  1) =     -0.83730  eV     1   --> A              
     e(  2 -  2) =      2.40832  eV     1   --> A              
     e(  3 -  3) =      4.97581  eV     1   --> A              
     e(  4 -  4) =      7.68834  eV     1   --> A              
     e(  5 -  5) =     22.03669  eV     1   --> A              
     e(  6 -  6) =     24.01091  eV     1   --> A              
     e(  7 -  7) =     26.74646  eV     1   --> A              
     e(  8 -  8) =     27.87752  eV     1   --> A              

 **************************************************************************

 **************************************************************************

                    xk=(   0.10000,   0.70000,   0.50000  )

     Band symmetry, C_1 (1)     point group:

     e(  1 -  1) =     -1.61963  eV     1   --> A              
     e(  2 -  2) =      2.45226  eV     1   --> A              
     e(  3 -  3) =      5.60092  eV     1   --> A              
     e(  4 -  4) =      8.64962  eV     1   --> A              
     e(  5 -  5) =     21.57002  eV     1   --> A              
     e(  6 -  6) =     23.81424  eV     1   --> A              
     e(  7 -  7) =     26.99227  eV     1   --> A              
     e(  8 -  8) =     28.04558  eV     1   --> A              

 **************************************************************************

 **************************************************************************

                    xk=(   0.12500,   0.62500,   0.50000  )

     Band symmetry, C_1 (1)     point group:

     e(  1 -  1) =     -2.35082  eV     1   --> A              
     e(  2 -  2) =      2.53639  eV     1   --> A              
     e(  3 -  3) =      6.35882  eV     1   --> A              
     e(  4 -  4) =      9.50116  eV     1   --> A              
     e(  5 -  5) =     21.33801  eV     1   --> A              
     e(  6 -  6) =     23.62711  eV     1   --> A              
     e(  7 -  7) =     26.33900  eV     1   --> A              
     e(  8 -  8) =     28.18213  eV     1   --> A              

 **************************************************************************

 **************************************************************************

                    xk=(   0.15000,   0.55000,   0.50000  )

     Band symmetry, C_1 (1)     point group:

     e(  1 -  1) =     -3.00970  eV     1   --> A              
     e(  2 -  2) =      2.70151  eV     1   --> A              
     e(  3 -  3) =      7.18293  eV     1   --> A              
     e(  4 -  4) =     10.16122  eV     1   --> A              
     e(  5 -  5) =     21.37541  eV     1   --> A              
     e(  6 -  6) =     23.37438  eV     1   --> A              
     e(  7 -  7) =     25.19307  eV     1   --> A              
     e(  8 -  8) =     28.41577  eV     1   --> A              

 **************************************************************************

 **************************************************************************

                    xk=(   0.17500,   0.47500,   0.50000  )

     Band symmetry, C_1 (1)     point group:

     e(  1 -  1) =     -3.58251  eV     1   --> A              
     e(  2 -  2) =      2.96014  eV     1   --> A              
     e(  3 -  3) =      8.02185  eV     1   --> A              
     e(  4 -  4) =     10.57049  eV     1   --> A              
     e(  5 -  5) =     21.67104  eV     1   --> A              
     e(  6 -  6) =     22.81556  eV     1   --> A              
     e(  7 -  7) =     24.31683  eV     1   --> A              
     e(  8 -  8) =     28.40911  eV     1   --> A              

 **************************************************************************

 **************************************************************************

                    xk=(   0.20000,   0.40000,   0.50000  )

     Band symmetry, C_1 (1)     point group:

     e(  1 -  1) =     -4.06007  eV     1   --> A              
     e(  2 -  2) =      3.31400  eV     1   --> A              
     e(  3 -  3) =      8.81936  eV     1   --> A              
     e(  4 -  4) =     10.70188  eV     1   --> A              
     e(  5 -  5) =     21.76580  eV     1   --> A              
     e(  6 -  6) =     22.30881  eV     1   --> A              
     e(  7 -  7) =     23.94978  eV     1   --> A              
     e(  8 -  8) =     28.08267  eV     1   --> A              

 **************************************************************************

 **************************************************************************

                    xk=(   0.22500,   0.32500,   0.50000  )

     Band symmetry, C_1 (1)     point group:

     e(  1 -  1) =     -4.43641  eV     1   --> A              
     e(  2 -  2) =      3.75997  eV     1   --> A              
     e(  3 -  3) =      9.50567  eV     1   --> A              
     e(  4 -  4) =     10.54989  eV     1   --> A              
     e(  5 -  5) =     20.96887  eV     1   --> A              
     e(  6 -  6) =     22.90741  eV     1   --> A              
     e(  7 -  7) =     23.76507  eV     1   --> A              
     e(  8 -  8) =     27.54815  eV     1   --> A              

 **************************************************************************

 **************************************************************************

                    xk=(   0.25000,   0.25000,   0.50000  )

     point group C_s (m)    
     there are  2 classes
     the character table:

       E     s    
A'     1.00  1.00
A''    1.00 -1.00

     the symmetry operations in each class and the name of the first element:

     E        1
                                                                 
     s        2
                                                                 

     Band symmetry, C_s (m)     point group:

     e(  1 -  1) =     -4.70749  eV     1   --> A'             
     e(  2 -  2) =      4.29165  eV     1   --> A'             
     e(  3 -  3) =      9.89860  eV     1   --> A''            
     e(  4 -  4) =     10.23133  eV     1   --> A'             
     e(  5 -  5) =     20.48449  eV     1   --> A'             
     e(  6 -  6) =     23.58190  eV     1   --> A''            
     e(  7 -  7) =     23.58458  eV     1   --> A'             
     e(  8 -  8) =     26.98180  eV     1   --> A'             

 **************************************************************************

 **************************************************************************

                    xk=(   0.27500,   0.17500,   0.50000  )

     point group C_1 (1)    
     there are  1 classes
     the character table:

       E    
A      1.00

     the symmetry operations in each class and the name of the first element:

     E        1
                                                                 

     Band symmetry, C_1 (1)     point group:

     e(  1 -  1) =     -4.87068  eV     1   --> A              
     e(  2 -  2) =      4.89748  eV     1   --> A              
     e(  3 -  3) =      9.28340  eV     1   --> A              
     e(  4 -  4) =     10.44989  eV     1   --> A              
     e(  5 -  5) =     20.43614  eV     1   --> A              
     e(  6 -  6) =     23.35014  eV     1   --> A              
     e(  7 -  7) =     24.20691  eV     1   --> A              
     e(  8 -  8) =     26.51585  eV     1   --> A              

 **************************************************************************

 **************************************************************************

                    xk=(   0.30000,   0.10000,   0.50000  )

     Band symmetry, C_1 (1)     point group:

     e(  1 -  1) =     -4.92454  eV     1   --> A              
     e(  2 -  2) =      5.55188  eV     1   --> A              
     e(  3 -  3) =      8.32553  eV     1   --> A              
     e(  4 -  4) =     10.63411  eV     1   --> A              
     e(  5 -  5) =     20.73673  eV     1   --> A              
     e(  6 -  6) =     23.06701  eV     1   --> A              
     e(  7 -  7) =     24.72707  eV     1   --> A              
     e(  8 -  8) =     26.21002  eV     1   --> A              

 **************************************************************************

 **************************************************************************

                    xk=(   0.32500,   0.02500,   0.50000  )

     Band symmetry, C_1 (1)     point group:

     e(  1 -  1) =     -4.86883  eV     1   --> A              
     e(  2 -  2) =      6.12066  eV     1   --> A              
     e(  3 -  3) =      7.34471  eV     1   --> A              
     e(  4 -  4) =     10.71710  eV     1   --> A              
     e(  5 -  5) =     21.17511  eV     1   --> A              
     e(  6 -  6) =     22.77888  eV     1   --> A              
     e(  7 -  7) =     25.08381  eV     1   --> A              
     e(  8 -  8) =     26.11545  eV     1   --> A              

 **************************************************************************

 **************************************************************************

                    xk=(   0.35000,  -0.05000,   0.50000  )

     Band symmetry, C_1 (1)     point group:

     e(  1 -  1) =     -4.70420  eV     1   --> A              
     e(  2 -  2) =      5.65460  eV     1   --> A              
     e(  3 -  3) =      7.36077  eV     1   --> A              
     e(  4 -  4) =     10.73836  eV     1   --> A              
     e(  5 -  5) =     21.53110  eV     1   --> A              
     e(  6 -  6) =     22.54605  eV     1   --> A              
     e(  7 -  7) =     25.02459  eV     1   --> A              
     e(  8 -  8) =     26.48174  eV     1   --> A              

 **************************************************************************

 **************************************************************************

                    xk=(   0.37500,  -0.12500,   0.50000  )

     Band symmetry, C_1 (1)     point group:

     e(  1 -  1) =     -4.43296  eV     1   --> A              
     e(  2 -  2) =      4.50080  eV     1   --> A              
     e(  3 -  3) =      8.06614  eV     1   --> A              
     e(  4 -  4) =     10.72712  eV     1   --> A              
     e(  5 -  5) =     21.70626  eV     1   --> A              
     e(  6 -  6) =     22.39941  eV     1   --> A              
     e(  7 -  7) =     24.57155  eV     1   --> A              
     e(  8 -  8) =     27.24718  eV     1   --> A              

 **************************************************************************

 **************************************************************************

                    xk=(   0.40000,  -0.20000,   0.50000  )

     Band symmetry, C_1 (1)     point group:

     e(  1 -  1) =     -4.06007  eV     1   --> A              
     e(  2 -  2) =      3.31400  eV     1   --> A              
     e(  3 -  3) =      8.81936  eV     1   --> A              
     e(  4 -  4) =     10.70188  eV     1   --> A              
     e(  5 -  5) =     21.76580  eV     1   --> A              
     e(  6 -  6) =     22.30881  eV     1   --> A              
     e(  7 -  7) =     23.94978  eV     1   --> A              
     e(  8 -  8) =     28.08267  eV     1   --> A              

 **************************************************************************

 **************************************************************************

                    xk=(   0.42500,  -0.27500,   0.50000  )

     Band symmetry, C_1 (1)     point group:

     e(  1 -  1) =     -3.59643  eV     1   --> A              
     e(  2 -  2) =      2.18613  eV     1   --> A              
     e(  3 -  3) =      9.51996  eV     1   --> A              
     e(  4 -  4) =     10.67326  eV     1   --> A              
     e(  5 -  5) =     21.80807  eV     1   --> A              
     e(  6 -  6) =     22.22650  eV     1   --> A              
     e(  7 -  7) =     23.30596  eV     1   --> A              
     e(  8 -  8) =     28.72787  eV     1   --> A              

 **************************************************************************

 **************************************************************************

                    xk=(   0.45000,  -0.35000,   0.50000  )

     Band symmetry, C_1 (1)     point group:

     e(  1 -  1) =     -3.06867  eV     1   --> A              
     e(  2 -  2) =      1.17106  eV     1   --> A              
     e(  3 -  3) =     10.09948  eV     1   --> A              
     e(  4 -  4) =     10.64824  eV     1   --> A              
     e(  5 -  5) =     21.86480  eV     1   --> A              
     e(  6 -  6) =     22.13107  eV     1   --> A              
     e(  7 -  7) =     22.76862  eV     1   --> A              
     e(  8 -  8) =     29.06603  eV     1   --> A              

 **************************************************************************

 **************************************************************************

                    xk=(   0.47500,  -0.42500,   0.50000  )

     Band symmetry, C_1 (1)     point group:

     e(  1 -  1) =     -2.55659  eV     1   --> A              
     e(  2 -  2) =      0.36176  eV     1   --> A              
     e(  3 -  3) =     10.48767  eV     1   --> A              
     e(  4 -  4) =     10.63135  eV     1   --> A              
     e(  5 -  5) =     21.91807  eV     1   --> A              
     e(  6 -  6) =     22.01030  eV     1   --> A              
     e(  7 -  7) =     22.45535  eV     1   --> A              
     e(  8 -  8) =     29.17339  eV     1   --> A              

 **************************************************************************

 **************************************************************************

                    xk=(   0.50000,  -0.50000,   0.50000  )

     zone border point and non-symmorphic group 
     symmetry decomposition not available

 **************************************************************************

 **************************************************************************

                    xk=(   0.47500,  -0.47500,   0.47500  )

     point group C_3v (3m)  
     there are  3 classes
     the character table:

       E     2C3   3s_v 
A_1    1.00  1.00  1.00
A_2    1.00  1.00 -1.00
E      2.00 -1.00  0.00

     the symmetry operations in each class and the name of the first element:

     E        1
                                                                 
     2C3      2    3
                                                                 
     3s_v     4    5    6
                                                                 

     Band symmetry, C_3v (3m)   point group:

     e(  1 -  1) =     -2.46760  eV     1   --> A_1  L_1       
     e(  2 -  2) =      0.20176  eV     1   --> A_1  L_1       
     e(  3 -  4) =     10.63648  eV     2   --> E    L_3       
     e(  5 -  6) =     21.93921  eV     2   --> E    L_3       
     e(  7 -  7) =     22.36439  eV     1   --> A_1  L_1       
     e(  8 -  8) =     29.18154  eV     1   --> A_1  L_1       

 **************************************************************************

 **************************************************************************

                    xk=(   0.45000,  -0.45000,   0.45000  )

     Band symmetry, C_3v (3m)   point group:

     e(  1 -  1) =     -2.85653  eV     1   --> A_1  L_1       
     e(  2 -  2) =      0.67646  eV     1   --> A_1  L_1       
     e(  3 -  4) =     10.66954  eV     2   --> E    L_3       
     e(  5 -  6) =     21.93430  eV     2   --> E    L_3       
     e(  7 -  7) =     22.34617  eV     1   --> A_1  L_1       
     e(  8 -  8) =     29.15691  eV     1   --> A_1  L_1       

 **************************************************************************

 **************************************************************************

                    xk=(   0.42500,  -0.42500,   0.42500  )

     Band symmetry, C_3v (3m)   point group:

     e(  1 -  1) =     -3.33034  eV     1   --> A_1  L_1       
     e(  2 -  2) =      1.29315  eV     1   --> A_1  L_1       
     e(  3 -  4) =     10.72458  eV     2   --> E    L_3       
     e(  5 -  6) =     21.92357  eV     2   --> E    L_3       
     e(  7 -  7) =     22.31570  eV     1   --> A_1  L_1       
     e(  8 -  8) =     29.11548  eV     1   --> A_1  L_1       

 **************************************************************************

 **************************************************************************

                    xk=(   0.40000,  -0.40000,   0.40000  )

     Band symmetry, C_3v (3m)   point group:

     e(  1 -  1) =     -3.82405  eV     1   --> A_1  L_1       
     e(  2 -  2) =      1.98557  eV     1   --> A_1  L_1       
     e(  3 -  4) =     10.80153  eV     2   --> E    L_3       
     e(  5 -  6) =     21.90395  eV     2   --> E    L_3       
     e(  7 -  7) =     22.27208  eV     1   --> A_1  L_1       
     e(  8 -  8) =     29.05223  eV     1   --> A_1  L_1       

 **************************************************************************

 **************************************************************************

                    xk=(   0.37500,  -0.37500,   0.37500  )

     Band symmetry, C_3v (3m)   point group:

     e(  1 -  1) =     -4.31126  eV     1   --> A_1  L_1       
     e(  2 -  2) =      2.72616  eV     1   --> A_1  L_1       
     e(  3 -  4) =     10.89960  eV     2   --> E    L_3       
     e(  5 -  6) =     21.86837  eV     2   --> E    L_3       
     e(  7 -  7) =     22.21436  eV     1   --> A_1  L_1       
     e(  8 -  8) =     28.96402  eV     1   --> A_1  L_1       

 **************************************************************************

 **************************************************************************

                    xk=(   0.35000,  -0.35000,   0.35000  )

     Band symmetry, C_3v (3m)   point group:

     e(  1 -  1) =     -4.78016  eV     1   --> A_1  L_1       
     e(  2 -  2) =      3.50195  eV     1   --> A_1  L_1       
     e(  3 -  4) =     11.01816  eV     2   --> E    L_3       
     e(  5 -  6) =     21.81204  eV     2   --> E    L_3       
     e(  7 -  7) =     22.14109  eV     1   --> A_1  L_1       
     e(  8 -  8) =     28.84895  eV     1   --> A_1  L_1       

 **************************************************************************

 **************************************************************************

                    xk=(   0.32500,  -0.32500,   0.32500  )

     Band symmetry, C_3v (3m)   point group:

     e(  1 -  1) =     -5.22499  eV     1   --> A_1  L_1       
     e(  2 -  2) =      4.30503  eV     1   --> A_1  L_1       
     e(  3 -  4) =     11.15733  eV     2   --> E    L_3       
     e(  5 -  6) =     21.72827  eV     2   --> E    L_3       
     e(  7 -  7) =     22.05009  eV     1   --> A_1  L_1       
     e(  8 -  8) =     28.70734  eV     1   --> A_1  L_1       

 **************************************************************************

 **************************************************************************

                    xk=(   0.30000,  -0.30000,   0.30000  )

     Band symmetry, C_3v (3m)   point group:

     e(  1 -  1) =     -5.64194  eV     1   --> A_1  L_1       
     e(  2 -  2) =      5.13024  eV     1   --> A_1  L_1       
     e(  3 -  4) =     11.31624  eV     2   --> E    L_3       
     e(  5 -  6) =     21.61262  eV     2   --> E    L_3       
     e(  7 -  7) =     21.93958  eV     1   --> A_1  L_1       
     e(  8 -  8) =     28.54251  eV     1   --> A_1  L_1       

 **************************************************************************

 **************************************************************************

                    xk=(   0.27500,  -0.27500,   0.27500  )

     Band symmetry, C_3v (3m)   point group:

     e(  1 -  1) =     -6.02908  eV     1   --> A_1  L_1       
     e(  2 -  2) =      5.97169  eV     1   --> A_1  L_1       
     e(  3 -  4) =     11.49366  eV     2   --> E    L_3       
     e(  5 -  6) =     21.46110  eV     2   --> E    L_3       
     e(  7 -  7) =     21.80677  eV     1   --> A_1  L_1       
     e(  8 -  8) =     28.35828  eV     1   --> A_1  L_1       

 **************************************************************************

 **************************************************************************

                    xk=(   0.25000,  -0.25000,   0.25000  )

     Band symmetry, C_3v (3m)   point group:

     e(  1 -  1) =     -6.38522  eV     1   --> A_1  L_1       
     e(  2 -  2) =      6.82452  eV     1   --> A_1  L_1       
     e(  3 -  4) =     11.68642  eV     2   --> E    L_3       
     e(  5 -  6) =     21.26929  eV     2   --> E    L_3       
     e(  7 -  7) =     21.64716  eV     1   --> A_1  L_1       
     e(  8 -  8) =     28.16101  eV     1   --> A_1  L_1       

 **************************************************************************

 **************************************************************************

                    xk=(   0.22500,  -0.22500,   0.22500  )

     Band symmetry, C_3v (3m)   point group:

     e(  1 -  1) =     -6.70917  eV     1   --> A_1  L_1       
     e(  2 -  2) =      7.68427  eV     1   --> A_1  L_1       
     e(  3 -  4) =     11.89357  eV     2   --> E    L_3       
     e(  5 -  6) =     21.04296  eV     2   --> E    L_3       
     e(  7 -  7) =     21.45774  eV     1   --> A_1  L_1       
     e(  8 -  8) =     27.95943  eV     1   --> A_1  L_1       

 **************************************************************************

 **************************************************************************

                    xk=(   0.20000,  -0.20000,   0.20000  )

     Band symmetry, C_3v (3m)   point group:

     e(  1 -  1) =     -7.00035  eV     1   --> A_1  L_1       
     e(  2 -  2) =      8.54253  eV     1   --> A_1  L_1       
     e(  3 -  4) =     12.11185  eV     2   --> E    L_3       
     e(  5 -  6) =     20.78542  eV     2   --> E    L_3       
     e(  7 -  7) =     21.23499  eV     1   --> A_1  L_1       
     e(  8 -  8) =     27.76069  eV     1   --> A_1  L_1       

 **************************************************************************

 **************************************************************************

                    xk=(   0.17500,  -0.17500,   0.17500  )

     Band symmetry, C_3v (3m)   point group:

     e(  1 -  1) =     -7.25821  eV     1   --> A_1  L_1       
     e(  2 -  2) =      9.39193  eV     1   --> A_1  L_1       
     e(  3 -  4) =     12.33720  eV     2   --> E    L_3       
     e(  5 -  6) =     20.50500  eV     2   --> E    L_3       
     e(  7 -  7) =     20.97673  eV     1   --> A_1  L_1       
     e(  8 -  8) =     27.57187  eV     1   --> A_1  L_1       

 **************************************************************************

 **************************************************************************

                    xk=(   0.15000,  -0.15000,   0.15000  )

     Band symmetry, C_3v (3m)   point group:

     e(  1 -  1) =     -7.48236  eV     1   --> A_1  L_1       
     e(  2 -  2) =     10.22152  eV     1   --> A_1  L_1       
     e(  3 -  4) =     12.56358  eV     2   --> E    L_3       
     e(  5 -  6) =     20.21248  eV     2   --> E    L_3       
     e(  7 -  7) =     20.68287  eV     1   --> A_1  L_1       
     e(  8 -  8) =     27.39863  eV     1   --> A_1  L_1       

 **************************************************************************

 **************************************************************************

                    xk=(   0.12500,  -0.12500,   0.12500  )

     Band symmetry, C_3v (3m)   point group:

     e(  1 -  1) =     -7.67251  eV     1   --> A_1  L_1       
     e(  2 -  2) =     11.01744  eV     1   --> A_1  L_1       
     e(  3 -  4) =     12.78509  eV     2   --> E    L_3       
     e(  5 -  6) =     19.92206  eV     2   --> E    L_3       
     e(  7 -  7) =     20.35593  eV     1   --> A_1  L_1       
     e(  8 -  8) =     27.24640  eV     1   --> A_1  L_1       

 **************************************************************************

 **************************************************************************

                    xk=(   0.10000,  -0.10000,   0.10000  )

     Band symmetry, C_3v (3m)   point group:

     e(  1 -  1) =     -7.82835  eV     1   --> A_1  L_1       
     e(  2 -  2) =     11.75968  eV     1   --> A_1  L_1       
     e(  3 -  4) =     12.99213  eV     2   --> E    L_3       
     e(  5 -  6) =     19.64880  eV     2   --> E    L_3       
     e(  7 -  7) =     20.01073  eV     1   --> A_1  L_1       
     e(  8 -  8) =     27.11894  eV     1   --> A_1  L_1       

 **************************************************************************

 **************************************************************************

                    xk=(   0.07500,  -0.07500,   0.07500  )

     Band symmetry, C_3v (3m)   point group:

     e(  1 -  1) =     -7.94972  eV     1   --> A_1  L_1       
     e(  2 -  2) =     12.41890  eV     1   --> A_1  L_1       
     e(  3 -  4) =     13.17336  eV     2   --> E    L_3       
     e(  5 -  6) =     19.40953  eV     2   --> E    L_3       
     e(  7 -  7) =     19.66669  eV     1   --> A_1  L_1       
     e(  8 -  8) =     27.01818  eV     1   --> A_1  L_1       

 **************************************************************************

 **************************************************************************

                    xk=(   0.05000,  -0.05000,   0.05000  )

     Band symmetry, C_3v (3m)   point group:

     e(  1 -  1) =     -8.03652  eV     1   --> A_1  L_1       
     e(  2 -  2) =     12.95472  eV     1   --> A_1  L_1       
     e(  3 -  4) =     13.31644  eV     2   --> E    L_3       
     e(  5 -  6) =     19.22165  eV     2   --> E    L_3       
     e(  7 -  7) =     19.36002  eV     1   --> A_1  L_1       
     e(  8 -  8) =     26.94579  eV     1   --> A_1  L_1       

 **************************************************************************

 **************************************************************************

                    xk=(   0.02500,  -0.02500,   0.02500  )

     Band symmetry, C_3v (3m)   point group:

     e(  1 -  1) =     -8.08863  eV     1   --> A_1  L_1       
     e(  2 -  2) =     13.31319  eV     1   --> A_1  L_1       
     e(  3 -  4) =     13.40873  eV     2   --> E    L_3       
     e(  5 -  6) =     19.10108  eV     2   --> E    L_3       
     e(  7 -  7) =     19.14043  eV     1   --> A_1  L_1       
     e(  8 -  8) =     26.90222  eV     1   --> A_1  L_1       

 **************************************************************************

 **************************************************************************

                    xk=(   0.00000,   0.00000,   0.00000  )

     point group O_h (m-3m) 
     there are 10 classes
     the character table:

       E     8C3   3C2   6C4   6C2'  i     8S6   3s_h  6S4   6s_d 
A_1g   1.00  1.00  1.00  1.00  1.00  1.00  1.00  1.00  1.00  1.00
A_2g   1.00  1.00  1.00 -1.00 -1.00  1.00  1.00  1.00 -1.00 -1.00
E_g    2.00 -1.00  2.00  0.00  0.00  2.00 -1.00  2.00  0.00  0.00
T_1g   3.00  0.00 -1.00  1.00 -1.00  3.00  0.00 -1.00  1.00 -1.00
T_2g   3.00  0.00 -1.00 -1.00  1.00  3.00  0.00 -1.00 -1.00  1.00
A_1u   1.00  1.00  1.00  1.00  1.00 -1.00 -1.00 -1.00 -1.00 -1.00
A_2u   1.00  1.00  1.00 -1.00 -1.00 -1.00 -1.00 -1.00  1.00  1.00
E_u    2.00 -1.00  2.00  0.00  0.00 -2.00  1.00 -2.00  0.00  0.00
T_1u   3.00  0.00 -1.00  1.00 -1.00 -3.00  0.00  1.00 -1.00  1.00
T_2u   3.00  0.00 -1.00 -1.00  1.00 -3.00  0.00  1.00  1.00 -1.00

     the symmetry operations in each class and the name of the first element:

     E        1
                                                                 
     8C3     17   19   20   18   24   21   22   23
                                                                 
     3C2      2    4    3
                                                                 
     6C4      7    8   15   16   12   11
                                                                 
     6C2'     5    6   14   13   10    9
                                                                 
     i       25
                                                                 
     8S6     41   43   44   42   48   45   46   47
                                                                 
     3s_h    26   28   27
                                                                 
     6S4     31   32   39   40   36   35
                                                                 
     6s_d    29   30   38   37   34   33
                                                                 

     Band symmetry, O_h (m-3m)  point group:

     e(  1 -  1) =     -8.10601  eV     1   --> A_1g G_1   G_1+
     e(  2 -  4) =     13.44070  eV     3   --> T_2g G_25' G_5+
     e(  5 -  7) =     19.05944  eV     3   --> T_1u G_15  G_4-
     e(  8 -  8) =     26.88768  eV     1   --> A_2u G_2'  G_2-

 **************************************************************************

 **************************************************************************

                    xk=(   0.00000,   0.00000,   0.05000  )

     point group C_4v (4mm) 
     there are  5 classes
     the character table:

       E     2C4   C2    2s_v  2s_d 
A_1    1.00  1.00  1.00  1.00  1.00
A_2    1.00  1.00  1.00 -1.00 -1.00
B_1    1.00 -1.00  1.00  1.00 -1.00
B_2    1.00 -1.00  1.00 -1.00  1.00
E      2.00  0.00 -2.00  0.00  0.00

     the symmetry operations in each class and the name of the first element:

     E        1
                                                                 
     2C4      3    4
                                                                 
     C2       2
                                                                 
     2s_v     5    6
                                                                 
     2s_d     7    8
                                                                 

     Band symmetry, C_4v (4mm)  point group:

     e(  1 -  1) =     -8.08284  eV     1   --> A_1  G_1 D_1   
     e(  2 -  3) =     13.34208  eV     2   --> E    G_5 D_5   
     e(  4 -  4) =     13.38348  eV     1   --> B_2  G_4 D_2'  
     e(  5 -  5) =     19.04080  eV     1   --> A_1  G_1 D_1   
     e(  6 -  7) =     19.17806  eV     2   --> E    G_5 D_5   
     e(  8 -  8) =     26.90627  eV     1   --> B_2  G_4 D_2'  

 **************************************************************************

 **************************************************************************

                    xk=(   0.00000,   0.00000,   0.10000  )

     Band symmetry, C_4v (4mm)  point group:

     e(  1 -  1) =     -8.01336  eV     1   --> A_1  G_1 D_1   
     e(  2 -  3) =     13.06960  eV     2   --> E    G_5 D_5   
     e(  4 -  4) =     13.21427  eV     1   --> B_2  G_4 D_2'  
     e(  5 -  5) =     18.98612  eV     1   --> A_1  G_1 D_1   
     e(  6 -  7) =     19.51036  eV     2   --> E    G_5 D_5   
     e(  8 -  8) =     26.95231  eV     1   --> B_2  G_4 D_2'  

 **************************************************************************

 **************************************************************************

                    xk=(   0.00000,   0.00000,   0.15000  )

     Band symmetry, C_4v (4mm)  point group:

     e(  1 -  1) =     -7.89765  eV     1   --> A_1  G_1 D_1   
     e(  2 -  3) =     12.67477  eV     2   --> E    G_5 D_5   
     e(  4 -  4) =     12.93995  eV     1   --> B_2  G_4 D_2'  
     e(  5 -  5) =     18.89894  eV     1   --> A_1  G_1 D_1   
     e(  6 -  7) =     20.00438  eV     2   --> E    G_5 D_5   
     e(  8 -  8) =     26.99611  eV     1   --> B_2  G_4 D_2'  

 **************************************************************************

 **************************************************************************

                    xk=(   0.00000,   0.00000,   0.20000  )

     Band symmetry, C_4v (4mm)  point group:

     e(  1 -  1) =     -7.73587  eV     1   --> A_1  G_1 D_1   
     e(  2 -  3) =     12.20794  eV     2   --> E    G_5 D_5   
     e(  4 -  4) =     12.57114  eV     1   --> B_2  G_4 D_2'  
     e(  5 -  5) =     18.78465  eV     1   --> A_1  G_1 D_1   
     e(  6 -  7) =     20.60929  eV     2   --> E    G_5 D_5   
     e(  8 -  8) =     26.98732  eV     1   --> B_2  G_4 D_2'  

 **************************************************************************

 **************************************************************************

                    xk=(   0.00000,   0.00000,   0.25000  )

     Band symmetry, C_4v (4mm)  point group:

     e(  1 -  1) =     -7.52820  eV     1   --> A_1  G_1 D_1   
     e(  2 -  3) =     11.70605  eV     2   --> E    G_5 D_5   
     e(  4 -  4) =     12.11681  eV     1   --> B_2  G_4 D_2'  
     e(  5 -  5) =     18.64981  eV     1   --> A_1  G_1 D_1   
     e(  6 -  7) =     21.28666  eV     2   --> E    G_5 D_5   
     e(  8 -  8) =     26.85826  eV     1   --> B_2  G_4 D_2'  

 **************************************************************************

 **************************************************************************

                    xk=(   0.00000,   0.00000,   0.30000  )

     Band symmetry, C_4v (4mm)  point group:

     e(  1 -  1) =     -7.27494  eV     1   --> A_1  G_1 D_1   
     e(  2 -  3) =     11.19359  eV     2   --> E    G_5 D_5   
     e(  4 -  4) =     11.58927  eV     1   --> B_2  G_4 D_2'  
     e(  5 -  5) =     18.50158  eV     1   --> A_1  G_1 D_1   
     e(  6 -  7) =     22.01135  eV     2   --> E    G_5 D_5   
     e(  8 -  8) =     26.54566  eV     1   --> B_2  G_4 D_2'  

 **************************************************************************

 **************************************************************************

                    xk=(   0.00000,   0.00000,   0.35000  )

     Band symmetry, C_4v (4mm)  point group:

     e(  1 -  1) =     -6.97641  eV     1   --> A_1  G_1 D_1   
     e(  2 -  3) =     10.68725  eV     2   --> E    G_5 D_5   
     e(  4 -  4) =     10.99760  eV     1   --> B_2  G_4 D_2'  
     e(  5 -  5) =     18.34702  eV     1   --> A_1  G_1 D_1   
     e(  6 -  7) =     22.76438  eV     2   --> E    G_5 D_5   
     e(  8 -  8) =     26.02796  eV     1   --> B_2  G_4 D_2'  

 **************************************************************************

 **************************************************************************

                    xk=(   0.00000,   0.00000,   0.40000  )

     Band symmetry, C_4v (4mm)  point group:

     e(  1 -  1) =     -6.63309  eV     1   --> A_1  G_1 D_1   
     e(  2 -  3) =     10.19765  eV     2   --> E    G_5 D_5   
     e(  4 -  4) =     10.34983  eV     1   --> B_2  G_4 D_2'  
     e(  5 -  5) =     18.19292  eV     1   --> A_1  G_1 D_1   
     e(  6 -  7) =     23.53385  eV     2   --> E    G_5 D_5   
     e(  8 -  8) =     25.34252  eV     1   --> B_2  G_4 D_2'  

 **************************************************************************

 **************************************************************************

                    xk=(   0.00000,   0.00000,   0.45000  )

     Band symmetry, C_4v (4mm)  point group:

     e(  1 -  1) =     -6.24534  eV     1   --> A_1  G_1 D_1   
     e(  2 -  2) =      9.65558  eV     1   --> B_2  G_4 D_2'  
     e(  3 -  4) =      9.73303  eV     2   --> E    G_5 D_5   
     e(  5 -  5) =     18.04683  eV     1   --> A_1  G_1 D_1   
     e(  6 -  7) =     24.31442  eV     2   --> E    G_5 D_5   
     e(  8 -  8) =     24.55984  eV     1   --> B_2  G_4 D_2'  

 **************************************************************************

 **************************************************************************

                    xk=(   0.00000,   0.00000,   0.50000  )

     Band symmetry, C_4v (4mm)  point group:

     e(  1 -  1) =     -5.81390  eV     1   --> A_1  G_1 D_1   
     e(  2 -  2) =      8.91959  eV     1   --> B_2  G_4 D_2'  
     e(  3 -  4) =      9.29711  eV     2   --> E    G_5 D_5   
     e(  5 -  5) =     17.91376  eV     1   --> A_1  G_1 D_1   
     e(  6 -  6) =     23.74199  eV     1   --> B_2  G_4 D_2'  
     e(  7 -  8) =     25.08907  eV     2   --> E    G_5 D_5   

 **************************************************************************

 **************************************************************************

                    xk=(   0.00000,   0.00000,   0.55000  )

     Band symmetry, C_4v (4mm)  point group:

     e(  1 -  1) =     -5.33975  eV     1   --> A_1  G_1 D_1   
     e(  2 -  2) =      8.14718  eV     1   --> B_2  G_4 D_2'  
     e(  3 -  4) =      8.89393  eV     2   --> E    G_5 D_5   
     e(  5 -  5) =     17.79714  eV     1   --> A_1  G_1 D_1   
     e(  6 -  6) =     22.93351  eV     1   --> B_2  G_4 D_2'  
     e(  7 -  8) =     25.85411  eV     2   --> E    G_5 D_5   

 **************************************************************************

 **************************************************************************

                    xk=(   0.00000,   0.00000,   0.60000  )

     Band symmetry, C_4v (4mm)  point group:

     e(  1 -  1) =     -4.82357  eV     1   --> A_1  G_1 D_1   
     e(  2 -  2) =      7.34715  eV     1   --> B_2  G_4 D_2'  
     e(  3 -  4) =      8.52802  eV     2   --> E    G_5 D_5   
     e(  5 -  5) =     17.70402  eV     1   --> A_1  G_1 D_1   
     e(  6 -  6) =     22.16316  eV     1   --> B_2  G_4 D_2'  
     e(  7 -  8) =     26.60193  eV     2   --> E    G_5 D_5   

 **************************************************************************

 **************************************************************************

                    xk=(   0.00000,   0.00000,   0.65000  )

     Band symmetry, C_4v (4mm)  point group:

     e(  1 -  1) =     -4.26648  eV     1   --> A_1  G_1 D_1   
     e(  2 -  2) =      6.52424  eV     1   --> B_2  G_4 D_2'  
     e(  3 -  4) =      8.20093  eV     2   --> E    G_5 D_5   
     e(  5 -  5) =     17.63793  eV     1   --> A_1  G_1 D_1   
     e(  6 -  6) =     21.44660  eV     1   --> B_2  G_4 D_2'  
     e(  7 -  8) =     27.32295  eV     2   --> E    G_5 D_5   

 **************************************************************************

 **************************************************************************

                    xk=(   0.00000,   0.00000,   0.70000  )

     Band symmetry, C_4v (4mm)  point group:

     e(  1 -  1) =     -3.66976  eV     1   --> A_1  G_1 D_1   
     e(  2 -  2) =      5.68467  eV     1   --> B_2  G_4 D_2'  
     e(  3 -  4) =      7.91447  eV     2   --> E    G_5 D_5   
     e(  5 -  5) =     17.60269  eV     1   --> A_1  G_1 D_1   
     e(  6 -  6) =     20.79237  eV     1   --> B_2  G_4 D_2'  
     e(  7 -  8) =     28.00572  eV     2   --> E    G_5 D_5   

 **************************************************************************

 **************************************************************************

                    xk=(   0.00000,   0.00000,   0.75000  )

     Band symmetry, C_4v (4mm)  point group:

     e(  1 -  1) =     -3.03492  eV     1   --> A_1  G_1 D_1   
     e(  2 -  2) =      4.83471  eV     1   --> B_2  G_4 D_2'  
     e(  3 -  4) =      7.67003  eV     2   --> E    G_5 D_5   
     e(  5 -  5) =     17.60186  eV     1   --> A_1  G_1 D_1   
     e(  6 -  6) =     20.20425  eV     1   --> B_2  G_4 D_2'  
     e(  7 -  8) =     28.63611  eV     2   --> E    G_5 D_5   

 **************************************************************************

 **************************************************************************

                    xk=(   0.00000,   0.00000,   0.80000  )

     Band symmetry, C_4v (4mm)  point group:

     e(  1 -  1) =     -2.36371  eV     1   --> A_1  G_1 D_1   
     e(  2 -  2) =      3.98063  eV     1   --> B_2  G_4 D_2'  
     e(  3 -  4) =      7.46870  eV     2   --> E    G_5 D_5   
     e(  5 -  5) =     17.63880  eV     1   --> A_1  G_1 D_1   
     e(  6 -  6) =     19.68295  eV     1   --> B_2  G_4 D_2'  
     e(  7 -  8) =     29.19677  eV     2   --> E    G_5 D_5   

 **************************************************************************

 **************************************************************************

                    xk=(   0.00000,   0.00000,   0.85000  )

     Band symmetry, C_4v (4mm)  point group:

     e(  1 -  1) =     -1.65823  eV     1   --> A_1  G_1 D_1   
     e(  2 -  2) =      3.12842  eV     1   --> B_2  G_4 D_2'  
     e(  3 -  4) =      7.31132  eV     2   --> E    G_5 D_5   
     e(  5 -  5) =     17.71676  eV     1   --> A_1  G_1 D_1   
     e(  6 -  6) =     19.22734  eV     1   --> B_2  G_4 D_2'  
     e(  7 -  8) =     29.66734  eV     2   --> E    G_5 D_5   

 **************************************************************************

 **************************************************************************

                    xk=(   0.00000,   0.00000,   0.90000  )

     Band symmetry, C_4v (4mm)  point group:

     e(  1 -  1) =     -0.92090  eV     1   --> A_1  G_1 D_1   
     e(  2 -  2) =      2.28368  eV     1   --> B_2  G_4 D_2'  
     e(  3 -  4) =      7.19833  eV     2   --> E    G_5 D_5   
     e(  5 -  5) =     17.83896  eV     1   --> A_1  G_1 D_1   
     e(  6 -  6) =     18.83514  eV     1   --> B_2  G_4 D_2'  
     e(  7 -  8) =     30.02550  eV     2   --> E    G_5 D_5   

 **************************************************************************

 **************************************************************************

                    xk=(   0.00000,   0.00000,   0.95000  )

     Band symmetry, C_4v (4mm)  point group:

     e(  1 -  1) =     -0.15455  eV     1   --> A_1  G_1 D_1   
     e(  2 -  2) =      1.45197  eV     1   --> B_2  G_4 D_2'  
     e(  3 -  4) =      7.13019  eV     2   --> E    G_5 D_5   
     e(  5 -  5) =     18.00837  eV     1   --> A_1  G_1 D_1   
     e(  6 -  6) =     18.50336  eV     1   --> B_2  G_4 D_2'  
     e(  7 -  8) =     30.24988  eV     2   --> E    G_5 D_5   

 **************************************************************************

 **************************************************************************

                    xk=(   0.00000,   0.00000,   1.00000  )

     zone border point and non-symmorphic group 
     symmetry decomposition not available

 **************************************************************************

 **************************************************************************

                    xk=(   0.05000,   0.02500,   0.95000  )

     point group C_1 (1)    
     there are  1 classes
     the character table:

       E    
A      1.00

     the symmetry operations in each class and the name of the first element:

     E        1
                                                                 

     Band symmetry, C_1 (1)     point group:

     e(  1 -  1) =     -0.13359  eV     1   --> A              
     e(  2 -  2) =      1.46747  eV     1   --> A              
     e(  3 -  3) =      6.99586  eV     1   --> A              
     e(  4 -  4) =      7.13664  eV     1   --> A              
     e(  5 -  5) =     18.11821  eV     1   --> A              
     e(  6 -  6) =     18.63247  eV     1   --> A              
     e(  7 -  7) =     30.17649  eV     1   --> A              
     e(  8 -  8) =     30.21210  eV     1   --> A              

 **************************************************************************

 **************************************************************************

                    xk=(   0.10000,   0.05000,   0.90000  )

     Band symmetry, C_1 (1)     point group:

     e(  1 -  1) =     -0.83072  eV     1   --> A              
     e(  2 -  2) =      2.32465  eV     1   --> A              
     e(  3 -  3) =      6.70288  eV     1   --> A              
     e(  4 -  4) =      7.22532  eV     1   --> A              
     e(  5 -  5) =     18.23373  eV     1   --> A              
     e(  6 -  6) =     19.36121  eV     1   --> A              
     e(  7 -  7) =     29.69863  eV     1   --> A              
     e(  8 -  8) =     29.89400  eV     1   --> A              

 **************************************************************************

 **************************************************************************

                    xk=(   0.15000,   0.07500,   0.85000  )

     Band symmetry, C_1 (1)     point group:

     e(  1 -  1) =     -1.44484  eV     1   --> A              
     e(  2 -  2) =      3.13688  eV     1   --> A              
     e(  3 -  3) =      6.35213  eV     1   --> A              
     e(  4 -  4) =      7.37817  eV     1   --> A              
     e(  5 -  5) =     18.52099  eV     1   --> A              
     e(  6 -  6) =     20.38613  eV     1   --> A              
     e(  7 -  7) =     28.87858  eV     1   --> A              
     e(  8 -  8) =     29.41441  eV     1   --> A              

 **************************************************************************

 **************************************************************************

                    xk=(   0.20000,   0.10000,   0.80000  )

     Band symmetry, C_1 (1)     point group:

     e(  1 -  1) =     -1.97041  eV     1   --> A              
     e(  2 -  2) =      3.71492  eV     1   --> A              
     e(  3 -  3) =      6.17867  eV     1   --> A              
     e(  4 -  4) =      7.60695  eV     1   --> A              
     e(  5 -  5) =     18.94707  eV     1   --> A              
     e(  6 -  6) =     21.64129  eV     1   --> A              
     e(  7 -  7) =     27.77558  eV     1   --> A              
     e(  8 -  8) =     28.80337  eV     1   --> A              

 **************************************************************************

 **************************************************************************

                    xk=(   0.25000,   0.12500,   0.75000  )

     Band symmetry, C_1 (1)     point group:

     e(  1 -  1) =     -2.40380  eV     1   --> A              
     e(  2 -  2) =      3.78852  eV     1   --> A              
     e(  3 -  3) =      6.46111  eV     1   --> A              
     e(  4 -  4) =      7.93775  eV     1   --> A              
     e(  5 -  5) =     19.48766  eV     1   --> A              
     e(  6 -  6) =     23.04275  eV     1   --> A              
     e(  7 -  7) =     26.51063  eV     1   --> A              
     e(  8 -  8) =     28.08242  eV     1   --> A              

 **************************************************************************

 **************************************************************************

                    xk=(   0.30000,   0.15000,   0.70000  )

     Band symmetry, C_1 (1)     point group:

     e(  1 -  1) =     -2.74268  eV     1   --> A              
     e(  2 -  2) =      3.46630  eV     1   --> A              
     e(  3 -  3) =      7.04695  eV     1   --> A              
     e(  4 -  4) =      8.41879  eV     1   --> A              
     e(  5 -  5) =     20.11799  eV     1   --> A              
     e(  6 -  6) =     24.36073  eV     1   --> A              
     e(  7 -  7) =     25.34995  eV     1   --> A              
     e(  8 -  8) =     27.28586  eV     1   --> A              

 **************************************************************************

 **************************************************************************

                    xk=(   0.35000,   0.17500,   0.65000  )

     Band symmetry, C_1 (1)     point group:

     e(  1 -  1) =     -2.98569  eV     1   --> A              
     e(  2 -  2) =      3.02013  eV     1   --> A              
     e(  3 -  3) =      7.61558  eV     1   --> A              
     e(  4 -  4) =      9.06712  eV     1   --> A              
     e(  5 -  5) =     20.80424  eV     1   --> A              
     e(  6 -  6) =     23.78991  eV     1   --> A              
     e(  7 -  7) =     25.86777  eV     1   --> A              
     e(  8 -  8) =     26.68864  eV     1   --> A              

 **************************************************************************

 **************************************************************************

                    xk=(   0.40000,   0.20000,   0.60000  )

     Band symmetry, C_1 (1)     point group:

     e(  1 -  1) =     -3.13228  eV     1   --> A              
     e(  2 -  2) =      2.57342  eV     1   --> A              
     e(  3 -  3) =      8.08762  eV     1   --> A              
     e(  4 -  4) =      9.76243  eV     1   --> A              
     e(  5 -  5) =     21.47965  eV     1   --> A              
     e(  6 -  6) =     22.80706  eV     1   --> A              
     e(  7 -  7) =     25.27372  eV     1   --> A              
     e(  8 -  8) =     27.62937  eV     1   --> A              

 **************************************************************************

 **************************************************************************

                    xk=(   0.45000,   0.22500,   0.55000  )

     Band symmetry, C_1 (1)     point group:

     e(  1 -  1) =     -3.18273  eV     1   --> A              
     e(  2 -  2) =      2.17428  eV     1   --> A              
     e(  3 -  3) =      8.49317  eV     1   --> A              
     e(  4 -  4) =     10.30283  eV     1   --> A              
     e(  5 -  5) =     21.79470  eV     1   --> A              
     e(  6 -  6) =     22.44967  eV     1   --> A              
     e(  7 -  7) =     24.35422  eV     1   --> A              
     e(  8 -  8) =     28.52906  eV     1   --> A              

 **************************************************************************

 **************************************************************************

                    xk=(   0.50000,   0.25000,   0.50000  )

     point group C_s (m)    
     there are  2 classes
     the character table:

       E     s    
A'     1.00  1.00
A''    1.00 -1.00

     the symmetry operations in each class and the name of the first element:

     E        1
                                                                 
     s        2
                                                                 

     Band symmetry, C_s (m)     point group:

     e(  1 -  1) =     -3.13786  eV     1   --> A'             
     e(  2 -  2) =      1.84539  eV     1   --> A'             
     e(  3 -  3) =      8.83973  eV     1   --> A'             
     e(  4 -  4) =     10.51682  eV     1   --> A''            
     e(  5 -  5) =     21.68932  eV     1   --> A'             
     e(  6 -  6) =     22.65281  eV     1   --> A''            
     e(  7 -  7) =     23.69901  eV     1   --> A'             
     e(  8 -  8) =     28.89256  eV     1   --> A'             

 **************************************************************************

 **************************************************************************

                    xk=(   0.55000,   0.27500,   0.45000  )

     point group C_1 (1)    
     there are  1 classes
     the character table:

       E    
A      1.00

     the symmetry operations in each class and the name of the first element:

     E        1
                                                                 

     Band symmetry, C_1 (1)     point group:

     e(  1 -  1) =     -2.99933  eV     1   --> A              
     e(  2 -  2) =      1.59908  eV     1   --> A              
     e(  3 -  3) =      9.09104  eV     1   --> A              
     e(  4 -  4) =     10.34173  eV     1   --> A              
     e(  5 -  5) =     21.78735  eV     1   --> A              
     e(  6 -  6) =     22.32742  eV     1   --> A              
     e(  7 -  7) =     23.86175  eV     1   --> A              
     e(  8 -  8) =     28.79085  eV     1   --> A              

 **************************************************************************

 **************************************************************************

                    xk=(   0.60000,   0.30000,   0.40000  )

     Band symmetry, C_1 (1)     point group:

     e(  1 -  1) =     -2.76991  eV     1   --> A              
     e(  2 -  2) =      1.44240  eV     1   --> A              
     e(  3 -  3) =      9.13225  eV     1   --> A              
     e(  4 -  4) =      9.90326  eV     1   --> A              
     e(  5 -  5) =     21.23281  eV     1   --> A              
     e(  6 -  6) =     22.93142  eV     1   --> A              
     e(  7 -  7) =     24.21730  eV     1   --> A              
     e(  8 -  8) =     28.42397  eV     1   --> A              

 **************************************************************************

 **************************************************************************

                    xk=(   0.65000,   0.32500,   0.35000  )

     Band symmetry, C_1 (1)     point group:

     e(  1 -  1) =     -2.45334  eV     1   --> A              
     e(  2 -  2) =      1.37951  eV     1   --> A              
     e(  3 -  3) =      8.68530  eV     1   --> A              
     e(  4 -  4) =      9.54708  eV     1   --> A              
     e(  5 -  5) =     20.69796  eV     1   --> A              
     e(  6 -  6) =     23.94162  eV     1   --> A              
     e(  7 -  7) =     24.55216  eV     1   --> A              
     e(  8 -  8) =     27.94994  eV     1   --> A              

 **************************************************************************

 **************************************************************************

                    xk=(   0.70000,   0.35000,   0.30000  )

     Band symmetry, C_1 (1)     point group:

     e(  1 -  1) =     -2.05503  eV     1   --> A              
     e(  2 -  2) =      1.41065  eV     1   --> A              
     e(  3 -  3) =      7.86451  eV     1   --> A              
     e(  4 -  4) =      9.22756  eV     1   --> A              
     e(  5 -  5) =     20.44464  eV     1   --> A              
     e(  6 -  6) =     24.44576  eV     1   --> A              
     e(  7 -  7) =     25.43963  eV     1   --> A              
     e(  8 -  8) =     27.47765  eV     1   --> A              

 **************************************************************************

 **************************************************************************

                    xk=(   0.75000,   0.37500,   0.25000  )

     Band symmetry, C_1 (1)     point group:

     e(  1 -  1) =     -1.58182  eV     1   --> A              
     e(  2 -  2) =      1.53151  eV     1   --> A              
     e(  3 -  3) =      6.95567  eV     1   --> A              
     e(  4 -  4) =      8.73769  eV     1   --> A              
     e(  5 -  5) =     20.52608  eV     1   --> A              
     e(  6 -  6) =     24.51895  eV     1   --> A              
     e(  7 -  7) =     26.48416  eV     1   --> A              
     e(  8 -  8) =     27.23184  eV     1   --> A              

 **************************************************************************

 **************************************************************************

                    xk=(   0.80000,   0.40000,   0.20000  )

     Band symmetry, C_1 (1)     point group:

     e(  1 -  1) =     -1.04303  eV     1   --> A              
     e(  2 -  2) =      1.72592  eV     1   --> A              
     e(  3 -  3) =      6.07056  eV     1   --> A              
     e(  4 -  4) =      8.07413  eV     1   --> A              
     e(  5 -  5) =     20.92613  eV     1   --> A              
     e(  6 -  6) =     24.50538  eV     1   --> A              
     e(  7 -  7) =     26.44787  eV     1   --> A              
     e(  8 -  8) =     27.88090  eV     1   --> A              

 **************************************************************************

 **************************************************************************

                    xk=(   0.85000,   0.42500,   0.15000  )

     Band symmetry, C_1 (1)     point group:

     e(  1 -  1) =     -0.45037  eV     1   --> A              
     e(  2 -  2) =      1.94742  eV     1   --> A              
     e(  3 -  3) =      5.29560  eV     1   --> A              
     e(  4 -  4) =      7.29934  eV     1   --> A              
     e(  5 -  5) =     21.58928  eV     1   --> A              
     e(  6 -  6) =     24.45958  eV     1   --> A              
     e(  7 -  7) =     26.16740  eV     1   --> A              
     e(  8 -  8) =     28.06247  eV     1   --> A              

 **************************************************************************

 **************************************************************************

                    xk=(   0.90000,   0.45000,   0.10000  )

     Band symmetry, C_1 (1)     point group:

     e(  1 -  1) =      0.18029  eV     1   --> A              
     e(  2 -  2) =      2.07320  eV     1   --> A              
     e(  3 -  3) =      4.77102  eV     1   --> A              
     e(  4 -  4) =      6.48805  eV     1   --> A              
     e(  5 -  5) =     22.44065  eV     1   --> A              
     e(  6 -  6) =     24.40395  eV     1   --> A              
     e(  7 -  7) =     25.94800  eV     1   --> A              
     e(  8 -  8) =     27.39840  eV     1   --> A              

 **************************************************************************

 **************************************************************************

                    xk=(   0.95000,   0.47500,   0.05000  )

     Band symmetry, C_1 (1)     point group:

     e(  1 -  1) =      0.82507  eV     1   --> A              
     e(  2 -  2) =      1.90804  eV     1   --> A              
     e(  3 -  3) =      4.69505  eV     1   --> A              
     e(  4 -  4) =      5.71637  eV     1   --> A              
     e(  5 -  5) =     23.37150  eV     1   --> A              
     e(  6 -  6) =     24.33440  eV     1   --> A              
     e(  7 -  7) =     25.81654  eV     1   --> A              
     e(  8 -  8) =     26.44807  eV     1   --> A              

 **************************************************************************

 **************************************************************************

                    xk=(   1.00000,   0.50000,   0.00000  )

     zone border point and non-symmorphic group 
     symmetry decomposition not available

 **************************************************************************

 **************************************************************************

                    xk=(   0.98750,   0.51250,   0.00000  )

     point group C_s (m)    
     there are  2 classes
     the character table:

       E     s    
A'     1.00  1.00
A''    1.00 -1.00

     the symmetry operations in each class and the name of the first element:

     E        1
                                                                 
     s        2
                                                                 

     Band symmetry, C_s (m)     point group:

     e(  1 -  1) =      1.33911  eV     1   --> A'             
     e(  2 -  2) =      1.52762  eV     1   --> A''            
     e(  3 -  3) =      4.97844  eV     1   --> A'             
     e(  4 -  4) =      5.17941  eV     1   --> A''            
     e(  5 -  5) =     23.95341  eV     1   --> A''            
     e(  6 -  6) =     24.17757  eV     1   --> A'             
     e(  7 -  7) =     25.86355  eV     1   --> A''            
     e(  8 -  8) =     25.88330  eV     1   --> A'             

 **************************************************************************

 **************************************************************************

                    xk=(   0.97500,   0.52500,   0.00000  )

     Band symmetry, C_s (m)     point group:

     e(  1 -  1) =      1.24629  eV     1   --> A'             
     e(  2 -  2) =      1.59995  eV     1   --> A''            
     e(  3 -  3) =      4.88883  eV     1   --> A'             
     e(  4 -  4) =      5.30919  eV     1   --> A''            
     e(  5 -  5) =     23.69833  eV     1   --> A''            
     e(  6 -  6) =     24.23697  eV     1   --> A'             
     e(  7 -  7) =     25.95030  eV     1   --> A'             
     e(  8 -  8) =     25.99704  eV     1   --> A''            

 **************************************************************************

 **************************************************************************

                    xk=(   0.96250,   0.53750,   0.00000  )

     Band symmetry, C_s (m)     point group:

     e(  1 -  1) =      1.15844  eV     1   --> A'             
     e(  2 -  2) =      1.65538  eV     1   --> A''            
     e(  3 -  3) =      4.80338  eV     1   --> A'             
     e(  4 -  4) =      5.45947  eV     1   --> A''            
     e(  5 -  5) =     23.38301  eV     1   --> A''            
     e(  6 -  6) =     24.28126  eV     1   --> A'             
     e(  7 -  7) =     26.03577  eV     1   --> A'             
     e(  8 -  8) =     26.19162  eV     1   --> A''            

 **************************************************************************

 **************************************************************************

                    xk=(   0.95000,   0.55000,   0.00000  )

     Band symmetry, C_s (m)     point group:

     e(  1 -  1) =      1.07557  eV     1   --> A'             
     e(  2 -  2) =      1.69575  eV     1   --> A''            
     e(  3 -  3) =      4.72221  eV     1   --> A'             
     e(  4 -  4) =      5.62709  eV     1   --> A''            
     e(  5 -  5) =     23.03783  eV     1   --> A''            
     e(  6 -  6) =     24.31212  eV     1   --> A'             
     e(  7 -  7) =     26.13823  eV     1   --> A'             
     e(  8 -  8) =     26.41817  eV     1   --> A''            

 **************************************************************************

 **************************************************************************

                    xk=(   0.93750,   0.56250,   0.00000  )

     Band symmetry, C_s (m)     point group:

     e(  1 -  1) =      0.99768  eV     1   --> A'             
     e(  2 -  2) =      1.72340  eV     1   --> A''            
     e(  3 -  3) =      4.64548  eV     1   --> A'             
     e(  4 -  4) =      5.80908  eV     1   --> A''            
     e(  5 -  5) =     22.67974  eV     1   --> A''            
     e(  6 -  6) =     24.33060  eV     1   --> A'             
     e(  7 -  7) =     26.25475  eV     1   --> A'             
     e(  8 -  8) =     26.66024  eV     1   --> A''            

 **************************************************************************

 **************************************************************************

                    xk=(   0.92500,   0.57500,   0.00000  )

     Band symmetry, C_s (m)     point group:

     e(  1 -  1) =      0.92479  eV     1   --> A'             
     e(  2 -  2) =      1.74042  eV     1   --> A''            
     e(  3 -  3) =      4.57319  eV     1   --> A'             
     e(  4 -  4) =      6.00209  eV     1   --> A''            
     e(  5 -  5) =     22.31846  eV     1   --> A''            
     e(  6 -  6) =     24.33946  eV     1   --> A'             
     e(  7 -  7) =     26.38258  eV     1   --> A'             
     e(  8 -  8) =     26.90846  eV     1   --> A''            

 **************************************************************************

 **************************************************************************

                    xk=(   0.91250,   0.58750,   0.00000  )

     Band symmetry, C_s (m)     point group:

     e(  1 -  1) =      0.85692  eV     1   --> A'             
     e(  2 -  2) =      1.74905  eV     1   --> A''            
     e(  3 -  3) =      4.50552  eV     1   --> A'             
     e(  4 -  4) =      6.20267  eV     1   --> A''            
     e(  5 -  5) =     21.95988  eV     1   --> A''            
     e(  6 -  6) =     24.34092  eV     1   --> A'             
     e(  7 -  7) =     26.51886  eV     1   --> A'             
     e(  8 -  8) =     27.15755  eV     1   --> A''            

 **************************************************************************

 **************************************************************************

                    xk=(   0.90000,   0.60000,   0.00000  )

     Band symmetry, C_s (m)     point group:

     e(  1 -  1) =      0.79402  eV     1   --> A'             
     e(  2 -  2) =      1.75116  eV     1   --> A''            
     e(  3 -  3) =      4.44251  eV     1   --> A'             
     e(  4 -  4) =      6.40770  eV     1   --> A''            
     e(  5 -  5) =     21.60926  eV     1   --> A''            
     e(  6 -  6) =     24.33698  eV     1   --> A'             
     e(  7 -  7) =     26.66063  eV     1   --> A'             
     e(  8 -  8) =     27.40341  eV     1   --> A''            

 **************************************************************************

 **************************************************************************

                    xk=(   0.88750,   0.61250,   0.00000  )

     Band symmetry, C_s (m)     point group:

     e(  1 -  1) =      0.73611  eV     1   --> A'             
     e(  2 -  2) =      1.74840  eV     1   --> A''            
     e(  3 -  3) =      4.38421  eV     1   --> A'             
     e(  4 -  4) =      6.61359  eV     1   --> A''            
     e(  5 -  5) =     21.26943  eV     1   --> A''            
     e(  6 -  6) =     24.32915  eV     1   --> A'             
     e(  7 -  7) =     26.80516  eV     1   --> A'             
     e(  8 -  8) =     27.64278  eV     1   --> A''            

 **************************************************************************

 **************************************************************************

                    xk=(   0.87500,   0.62500,   0.00000  )

     Band symmetry, C_s (m)     point group:

     e(  1 -  1) =      0.68325  eV     1   --> A'             
     e(  2 -  2) =      1.74227  eV     1   --> A''            
     e(  3 -  3) =      4.33080  eV     1   --> A'             
     e(  4 -  4) =      6.81751  eV     1   --> A''            
     e(  5 -  5) =     20.94458  eV     1   --> A''            
     e(  6 -  6) =     24.31905  eV     1   --> A'             
     e(  7 -  7) =     26.95028  eV     1   --> A'             
     e(  8 -  8) =     27.87313  eV     1   --> A''            

 **************************************************************************

 **************************************************************************

                    xk=(   0.86250,   0.63750,   0.00000  )

     Band symmetry, C_s (m)     point group:

     e(  1 -  1) =      0.63540  eV     1   --> A'             
     e(  2 -  2) =      1.73392  eV     1   --> A''            
     e(  3 -  3) =      4.28229  eV     1   --> A'             
     e(  4 -  4) =      7.01606  eV     1   --> A''            
     e(  5 -  5) =     20.63732  eV     1   --> A''            
     e(  6 -  6) =     24.30762  eV     1   --> A'             
     e(  7 -  7) =     27.09344  eV     1   --> A'             
     e(  8 -  8) =     28.09175  eV     1   --> A''            

 **************************************************************************

 **************************************************************************

                    xk=(   0.85000,   0.65000,   0.00000  )

     Band symmetry, C_s (m)     point group:

     e(  1 -  1) =      0.59259  eV     1   --> A'             
     e(  2 -  2) =      1.72434  eV     1   --> A''            
     e(  3 -  3) =      4.23874  eV     1   --> A'             
     e(  4 -  4) =      7.20602  eV     1   --> A''            
     e(  5 -  5) =     20.35066  eV     1   --> A''            
     e(  6 -  6) =     24.29571  eV     1   --> A'             
     e(  7 -  7) =     27.23220  eV     1   --> A'             
     e(  8 -  8) =     28.29616  eV     1   --> A''            

 **************************************************************************

 **************************************************************************

                    xk=(   0.83750,   0.66250,   0.00000  )

     Band symmetry, C_s (m)     point group:

     e(  1 -  1) =      0.55471  eV     1   --> A'             
     e(  2 -  2) =      1.71419  eV     1   --> A''            
     e(  3 -  3) =      4.19976  eV     1   --> A'             
     e(  4 -  4) =      7.38399  eV     1   --> A''            
     e(  5 -  5) =     20.08752  eV     1   --> A''            
     e(  6 -  6) =     24.28303  eV     1   --> A'             
     e(  7 -  7) =     27.36388  eV     1   --> A'             
     e(  8 -  8) =     28.48333  eV     1   --> A''            

 **************************************************************************

 **************************************************************************

                    xk=(   0.82500,   0.67500,   0.00000  )

     Band symmetry, C_s (m)     point group:

     e(  1 -  1) =      0.52197  eV     1   --> A'             
     e(  2 -  2) =      1.70437  eV     1   --> A''            
     e(  3 -  3) =      4.16637  eV     1   --> A'             
     e(  4 -  4) =      7.54729  eV     1   --> A''            
     e(  5 -  5) =     19.85122  eV     1   --> A''            
     e(  6 -  6) =     24.27214  eV     1   --> A'             
     e(  7 -  7) =     27.48770  eV     1   --> A'             
     e(  8 -  8) =     28.65233  eV     1   --> A''            

 **************************************************************************

 **************************************************************************

                    xk=(   0.81250,   0.68750,   0.00000  )

     Band symmetry, C_s (m)     point group:

     e(  1 -  1) =      0.49425  eV     1   --> A'             
     e(  2 -  2) =      1.69528  eV     1   --> A''            
     e(  3 -  3) =      4.13798  eV     1   --> A'             
     e(  4 -  4) =      7.69210  eV     1   --> A''            
     e(  5 -  5) =     19.64478  eV     1   --> A''            
     e(  6 -  6) =     24.26225  eV     1   --> A'             
     e(  7 -  7) =     27.59811  eV     1   --> A'             
     e(  8 -  8) =     28.80019  eV     1   --> A''            

 **************************************************************************

 **************************************************************************

                    xk=(   0.80000,   0.70000,   0.00000  )

     Band symmetry, C_s (m)     point group:

     e(  1 -  1) =      0.47157  eV     1   --> A'             
     e(  2 -  2) =      1.68733  eV     1   --> A''            
     e(  3 -  3) =      4.11469  eV     1   --> A'             
     e(  4 -  4) =      7.81562  eV     1   --> A''            
     e(  5 -  5) =     19.47088  eV     1   --> A''            
     e(  6 -  6) =     24.25375  eV     1   --> A'             
     e(  7 -  7) =     27.69348  eV     1   --> A'             
     e(  8 -  8) =     28.92404  eV     1   --> A''            

 **************************************************************************

 **************************************************************************

                    xk=(   0.78750,   0.71250,   0.00000  )

     Band symmetry, C_s (m)     point group:

     e(  1 -  1) =      0.45393  eV     1   --> A'             
     e(  2 -  2) =      1.68084  eV     1   --> A''            
     e(  3 -  3) =      4.09655  eV     1   --> A'             
     e(  4 -  4) =      7.91505  eV     1   --> A''            
     e(  5 -  5) =     19.33236  eV     1   --> A''            
     e(  6 -  6) =     24.24691  eV     1   --> A'             
     e(  7 -  7) =     27.77127  eV     1   --> A'             
     e(  8 -  8) =     29.02255  eV     1   --> A''            

 **************************************************************************

 **************************************************************************

                    xk=(   0.77500,   0.72500,   0.00000  )

     Band symmetry, C_s (m)     point group:

     e(  1 -  1) =      0.44133  eV     1   --> A'             
     e(  2 -  2) =      1.67604  eV     1   --> A''            
     e(  3 -  3) =      4.08357  eV     1   --> A'             
     e(  4 -  4) =      7.98797  eV     1   --> A''            
     e(  5 -  5) =     19.23156  eV     1   --> A''            
     e(  6 -  6) =     24.24192  eV     1   --> A'             
     e(  7 -  7) =     27.82895  eV     1   --> A'             
     e(  8 -  8) =     29.09414  eV     1   --> A''            

 **************************************************************************

 **************************************************************************

                    xk=(   0.76250,   0.73750,   0.00000  )

     Band symmetry, C_s (m)     point group:

     e(  1 -  1) =      0.43376  eV     1   --> A'             
     e(  2 -  2) =      1.67311  eV     1   --> A''            
     e(  3 -  3) =      4.07578  eV     1   --> A'             
     e(  4 -  4) =      8.03275  eV     1   --> A''            
     e(  5 -  5) =     19.17039  eV     1   --> A''            
     e(  6 -  6) =     24.23889  eV     1   --> A'             
     e(  7 -  7) =     27.86489  eV     1   --> A'             
     e(  8 -  8) =     29.13786  eV     1   --> A''            

 **************************************************************************

 **************************************************************************

                    xk=(   0.75000,   0.75000,   0.00000  )

     point group C_2v (mm2) 
     there are  4 classes
     the character table:

       E     C2    s_v   s_v' 
A_1    1.00  1.00  1.00  1.00
A_2    1.00  1.00 -1.00 -1.00
B_1    1.00 -1.00  1.00 -1.00
B_2    1.00 -1.00 -1.00  1.00

     the symmetry operations in each class and the name of the first element:

     E        1
                                                                 
     C2       2
                                                                 
     s_v      3
                                                                 
     s_v'     4
                                                                 

     Band symmetry, C_2v (mm2)  point group:

     e(  1 -  1) =      0.43124  eV     1   --> A_1  D_1  S_1  
     e(  2 -  2) =      1.67212  eV     1   --> B_2  D_4  S_4  
     e(  3 -  3) =      4.07318  eV     1   --> A_1  D_1  S_1  
     e(  4 -  4) =      8.04773  eV     1   --> A_2  D_2  S_2  
     e(  5 -  5) =     19.14984  eV     1   --> B_2  D_4  S_4  
     e(  6 -  6) =     24.23787  eV     1   --> A_1  D_1  S_1  
     e(  7 -  7) =     27.87688  eV     1   --> B_1  D_3  S_3  
     e(  8 -  8) =     29.15242  eV     1   --> B_2  D_4  S_4  

 **************************************************************************

     BANDS        :      0.50s CPU      1.03s WALL


   This run was terminated on:  13:54:10  22Sep2023            

=------------------------------------------------------------------------------=
   JOB DONE.
=------------------------------------------------------------------------------=
