
     Program PWSCF v.7.1 starts on 22Sep2023 at 13:54: 6 

     This program is part of the open-source Quantum ESPRESSO suite
     for quantum simulation of materials; please cite
         "P. Giannozzi et al., J. Phys.:Condens. Matter 21 395502 (2009);
         "P. Giannozzi et al., J. Phys.:Condens. Matter 29 465901 (2017);
         "P. Giannozzi et al., J. Chem. Phys. 152 154105 (2020);
          URL http://www.quantum-espresso.org", 
     in publications or presentations arising from this work. More details at
     http://www.quantum-espresso.org/quote

     Parallel version (MPI & OpenMP), running on      10 processor cores
     Number of MPI processes:                10
     Threads/MPI process:                     1

     MPI processes distributed on     1 nodes
     11677 MiB available memory on the printing compute node when the environment starts

     Waiting for input...
     Reading input from standard input

     Current dimensions of program PWSCF are:
     Max number of different atomic species (ntypx) = 10
     Max number of k-points (npk) =  40000
     Max angular momentum in pseudopotentials (lmaxx) =  4
     Message from routine volume:
     axis vectors are left-handed

     Atomic positions and unit cell read from directory:
     ./work/pwscf.save/

     Message from routine volume:
     axis vectors are left-handed
     file C.pbe-n-kjpaw_psl.1.0.0.UPF: wavefunction(s)  2S 2P renormalized
     Message from routine setup:
     using ibrav=0 with symmetry is DISCOURAGED, use correct ibrav instead

     R & G space division:  proc/nbgrp/npool/nimage =      10
     Subspace diagonalization in iterative solution of the eigenvalue problem:
     a serial algorithm will be used


     Parallelization info
     --------------------
     sticks:   dense  smooth     PW     G-vecs:    dense   smooth      PW
     Min          51      25      8                  762      263      52
     Max          52      26      9                  764      265      55
     Sum         511     253     85                 7631     2637     531

     Using Slab Decomposition



     bravais-lattice index     =            0
     lattice parameter (alat)  =       6.7288  a.u.
     unit-cell volume          =      76.1653 (a.u.)^3
     number of atoms/cell      =            2
     number of atomic types    =            1
     number of electrons       =         8.00
     number of Kohn-Sham states=            8
     kinetic-energy cutoff     =      40.0000  Ry
     charge density cutoff     =     326.0000  Ry
     Exchange-correlation= SLA  PW   PBX  PBC
                           (   1   4   3   4   0   0   0)

     celldm(1)=   6.728823  celldm(2)=   0.000000  celldm(3)=   0.000000
     celldm(4)=   0.000000  celldm(5)=   0.000000  celldm(6)=   0.000000

     crystal axes: (cart. coord. in units of alat)
               a(1) = (   0.500000   0.500000   0.000000 )  
               a(2) = (   0.500000   0.000000   0.500000 )  
               a(3) = (   0.000000   0.500000   0.500000 )  

     reciprocal axes: (cart. coord. in units 2 pi/alat)
               b(1) = (  1.000000  1.000000 -1.000000 )  
               b(2) = (  1.000000 -1.000000  1.000000 )  
               b(3) = ( -1.000000  1.000000  1.000000 )  


     PseudoPot. # 1 for C  read from file:
     ./../../pseudo/psl100_PBE/C.pbe-n-kjpaw_psl.1.0.0.UPF
     MD5 check sum: 9c93de3b2c8fcda7d5ce2998c9105c7d
     Pseudo is Projector augmented-wave + core cor, Zval =  4.0
     Generated using 'atomic' code by A. Dal Corso  v.7.2
     Shape of augmentation charge: PSQ
     Using radial grid of 1073 points,  4 beta functions with: 
                l(1) =   0
                l(2) =   0
                l(3) =   1
                l(4) =   1
     Q(r) pseudized with 0 coefficients 


     atomic species   valence    mass     pseudopotential
        C              4.00    12.01060     C ( 1.00)

     48 Sym. Ops., with inversion, found (24 have fractional translation)


                                    s                        frac. trans.

      isym =  1     identity                                     

 cryst.   s( 1) = (     1          0          0      )
                  (     0          1          0      )
                  (     0          0          1      )

 cart.    s( 1) = (  1.0000000  0.0000000  0.0000000 )
                  (  0.0000000  1.0000000  0.0000000 )
                  (  0.0000000  0.0000000  1.0000000 )


      isym =  2     180 deg rotation - cart. axis [0,0,1]        

 cryst.   s( 2) = (    -1          0          0      )
                  (    -1          0          1      )
                  (    -1          1          0      )

 cart.    s( 2) = ( -1.0000000  0.0000000  0.0000000 )
                  (  0.0000000 -1.0000000  0.0000000 )
                  (  0.0000000  0.0000000  1.0000000 )


      isym =  3     180 deg rotation - cart. axis [0,1,0]        

 cryst.   s( 3) = (     0         -1          1      )
                  (     0         -1          0      )
                  (     1         -1          0      )

 cart.    s( 3) = ( -1.0000000  0.0000000  0.0000000 )
                  (  0.0000000  1.0000000  0.0000000 )
                  (  0.0000000  0.0000000 -1.0000000 )


      isym =  4     180 deg rotation - cart. axis [1,0,0]        

 cryst.   s( 4) = (     0          1         -1      )
                  (     1          0         -1      )
                  (     0          0         -1      )

 cart.    s( 4) = (  1.0000000  0.0000000  0.0000000 )
                  (  0.0000000 -1.0000000  0.0000000 )
                  (  0.0000000  0.0000000 -1.0000000 )


      isym =  5     180 deg rotation - cart. axis [1,1,0]        

 cryst.   s( 5) = (     1          0          0      )    f =( -0.2500000 )
                  (     1         -1          0      )       ( -0.2500000 )
                  (     1          0         -1      )       ( -0.2500000 )

 cart.    s( 5) = (  0.0000000  1.0000000  0.0000000 )    f =( -0.2500000 )
                  (  1.0000000  0.0000000  0.0000000 )       ( -0.2500000 )
                  (  0.0000000  0.0000000 -1.0000000 )       ( -0.2500000 )


      isym =  6     180 deg rotation - cart. axis [1,-1,0]       

 cryst.   s( 6) = (    -1          0          0      )    f =( -0.2500000 )
                  (     0          0         -1      )       ( -0.2500000 )
                  (     0         -1          0      )       ( -0.2500000 )

 cart.    s( 6) = (  0.0000000 -1.0000000  0.0000000 )    f =( -0.2500000 )
                  ( -1.0000000  0.0000000  0.0000000 )       ( -0.2500000 )
                  (  0.0000000  0.0000000 -1.0000000 )       ( -0.2500000 )


      isym =  7      90 deg rotation - cart. axis [0,0,-1]       

 cryst.   s( 7) = (     0          1         -1      )    f =( -0.2500000 )
                  (    -1          1          0      )       ( -0.2500000 )
                  (     0          1          0      )       ( -0.2500000 )

 cart.    s( 7) = (  0.0000000  1.0000000  0.0000000 )    f =( -0.2500000 )
                  ( -1.0000000  0.0000000  0.0000000 )       ( -0.2500000 )
                  (  0.0000000  0.0000000  1.0000000 )       ( -0.2500000 )


      isym =  8      90 deg rotation - cart. axis [0,0,1]        

 cryst.   s( 8) = (     0         -1          1      )    f =( -0.2500000 )
                  (     0          0          1      )       ( -0.2500000 )
                  (    -1          0          1      )       ( -0.2500000 )

 cart.    s( 8) = (  0.0000000 -1.0000000  0.0000000 )    f =( -0.2500000 )
                  (  1.0000000  0.0000000  0.0000000 )       ( -0.2500000 )
                  (  0.0000000  0.0000000  1.0000000 )       ( -0.2500000 )


      isym =  9     180 deg rotation - cart. axis [1,0,1]        

 cryst.   s( 9) = (    -1          1          0      )    f =( -0.2500000 )
                  (     0          1          0      )       ( -0.2500000 )
                  (     0          1         -1      )       ( -0.2500000 )

 cart.    s( 9) = (  0.0000000  0.0000000  1.0000000 )    f =( -0.2500000 )
                  (  0.0000000 -1.0000000  0.0000000 )       ( -0.2500000 )
                  (  1.0000000  0.0000000  0.0000000 )       ( -0.2500000 )


      isym = 10     180 deg rotation - cart. axis [-1,0,1]       

 cryst.   s(10) = (     0          0         -1      )    f =( -0.2500000 )
                  (     0         -1          0      )       ( -0.2500000 )
                  (    -1          0          0      )       ( -0.2500000 )

 cart.    s(10) = (  0.0000000  0.0000000 -1.0000000 )    f =( -0.2500000 )
                  (  0.0000000 -1.0000000  0.0000000 )       ( -0.2500000 )
                  ( -1.0000000  0.0000000  0.0000000 )       ( -0.2500000 )


      isym = 11      90 deg rotation - cart. axis [0,1,0]        

 cryst.   s(11) = (     1         -1          0      )    f =( -0.2500000 )
                  (     1          0         -1      )       ( -0.2500000 )
                  (     1          0          0      )       ( -0.2500000 )

 cart.    s(11) = (  0.0000000  0.0000000  1.0000000 )    f =( -0.2500000 )
                  (  0.0000000  1.0000000  0.0000000 )       ( -0.2500000 )
                  ( -1.0000000  0.0000000  0.0000000 )       ( -0.2500000 )


      isym = 12      90 deg rotation - cart. axis [0,-1,0]       

 cryst.   s(12) = (     0          0          1      )    f =( -0.2500000 )
                  (    -1          0          1      )       ( -0.2500000 )
                  (     0         -1          1      )       ( -0.2500000 )

 cart.    s(12) = (  0.0000000  0.0000000 -1.0000000 )    f =( -0.2500000 )
                  (  0.0000000  1.0000000  0.0000000 )       ( -0.2500000 )
                  (  1.0000000  0.0000000  0.0000000 )       ( -0.2500000 )


      isym = 13     180 deg rotation - cart. axis [0,1,1]        

 cryst.   s(13) = (    -1          0          1      )    f =( -0.2500000 )
                  (     0         -1          1      )       ( -0.2500000 )
                  (     0          0          1      )       ( -0.2500000 )

 cart.    s(13) = ( -1.0000000  0.0000000  0.0000000 )    f =( -0.2500000 )
                  (  0.0000000  0.0000000  1.0000000 )       ( -0.2500000 )
                  (  0.0000000  1.0000000  0.0000000 )       ( -0.2500000 )


      isym = 14     180 deg rotation - cart. axis [0,1,-1]       

 cryst.   s(14) = (     0         -1          0      )    f =( -0.2500000 )
                  (    -1          0          0      )       ( -0.2500000 )
                  (     0          0         -1      )       ( -0.2500000 )

 cart.    s(14) = ( -1.0000000  0.0000000  0.0000000 )    f =( -0.2500000 )
                  (  0.0000000  0.0000000 -1.0000000 )       ( -0.2500000 )
                  (  0.0000000 -1.0000000  0.0000000 )       ( -0.2500000 )


      isym = 15      90 deg rotation - cart. axis [-1,0,0]       

 cryst.   s(15) = (     1          0         -1      )    f =( -0.2500000 )
                  (     1          0          0      )       ( -0.2500000 )
                  (     1         -1          0      )       ( -0.2500000 )

 cart.    s(15) = (  1.0000000  0.0000000  0.0000000 )    f =( -0.2500000 )
                  (  0.0000000  0.0000000  1.0000000 )       ( -0.2500000 )
                  (  0.0000000 -1.0000000  0.0000000 )       ( -0.2500000 )


      isym = 16      90 deg rotation - cart. axis [1,0,0]        

 cryst.   s(16) = (     0          1          0      )    f =( -0.2500000 )
                  (     0          1         -1      )       ( -0.2500000 )
                  (    -1          1          0      )       ( -0.2500000 )

 cart.    s(16) = (  1.0000000  0.0000000  0.0000000 )    f =( -0.2500000 )
                  (  0.0000000  0.0000000 -1.0000000 )       ( -0.2500000 )
                  (  0.0000000  1.0000000  0.0000000 )       ( -0.2500000 )


      isym = 17     120 deg rotation - cart. axis [-1,-1,-1]     

 cryst.   s(17) = (     0          1          0      )
                  (     0          0          1      )
                  (     1          0          0      )

 cart.    s(17) = (  0.0000000  1.0000000  0.0000000 )
                  (  0.0000000  0.0000000  1.0000000 )
                  (  1.0000000  0.0000000  0.0000000 )


      isym = 18     120 deg rotation - cart. axis [-1,1,1]       

 cryst.   s(18) = (     0         -1          0      )
                  (     1         -1          0      )
                  (     0         -1          1      )

 cart.    s(18) = (  0.0000000 -1.0000000  0.0000000 )
                  (  0.0000000  0.0000000  1.0000000 )
                  ( -1.0000000  0.0000000  0.0000000 )


      isym = 19     120 deg rotation - cart. axis [1,1,-1]       

 cryst.   s(19) = (     1          0         -1      )
                  (     0          0         -1      )
                  (     0          1         -1      )

 cart.    s(19) = (  0.0000000  1.0000000  0.0000000 )
                  (  0.0000000  0.0000000 -1.0000000 )
                  ( -1.0000000  0.0000000  0.0000000 )


      isym = 20     120 deg rotation - cart. axis [1,-1,1]       

 cryst.   s(20) = (    -1          0          1      )
                  (    -1          1          0      )
                  (    -1          0          0      )

 cart.    s(20) = (  0.0000000 -1.0000000  0.0000000 )
                  (  0.0000000  0.0000000 -1.0000000 )
                  (  1.0000000  0.0000000  0.0000000 )


      isym = 21     120 deg rotation - cart. axis [1,1,1]        

 cryst.   s(21) = (     0          0          1      )
                  (     1          0          0      )
                  (     0          1          0      )

 cart.    s(21) = (  0.0000000  0.0000000  1.0000000 )
                  (  1.0000000  0.0000000  0.0000000 )
                  (  0.0000000  1.0000000  0.0000000 )


      isym = 22     120 deg rotation - cart. axis [-1,1,-1]      

 cryst.   s(22) = (     0          0         -1      )
                  (     0          1         -1      )
                  (     1          0         -1      )

 cart.    s(22) = (  0.0000000  0.0000000  1.0000000 )
                  ( -1.0000000  0.0000000  0.0000000 )
                  (  0.0000000 -1.0000000  0.0000000 )


      isym = 23     120 deg rotation - cart. axis [1,-1,-1]      

 cryst.   s(23) = (    -1          1          0      )
                  (    -1          0          0      )
                  (    -1          0          1      )

 cart.    s(23) = (  0.0000000  0.0000000 -1.0000000 )
                  ( -1.0000000  0.0000000  0.0000000 )
                  (  0.0000000  1.0000000  0.0000000 )


      isym = 24     120 deg rotation - cart. axis [-1,-1,1]      

 cryst.   s(24) = (     1         -1          0      )
                  (     0         -1          1      )
                  (     0         -1          0      )

 cart.    s(24) = (  0.0000000  0.0000000 -1.0000000 )
                  (  1.0000000  0.0000000  0.0000000 )
                  (  0.0000000 -1.0000000  0.0000000 )


      isym = 25     inversion                                    

 cryst.   s(25) = (    -1          0          0      )    f =( -0.2500000 )
                  (     0         -1          0      )       ( -0.2500000 )
                  (     0          0         -1      )       ( -0.2500000 )

 cart.    s(25) = ( -1.0000000  0.0000000  0.0000000 )    f =( -0.2500000 )
                  (  0.0000000 -1.0000000  0.0000000 )       ( -0.2500000 )
                  (  0.0000000  0.0000000 -1.0000000 )       ( -0.2500000 )


      isym = 26     inv. 180 deg rotation - cart. axis [0,0,1]   

 cryst.   s(26) = (     1          0          0      )    f =( -0.2500000 )
                  (     1          0         -1      )       ( -0.2500000 )
                  (     1         -1          0      )       ( -0.2500000 )

 cart.    s(26) = (  1.0000000  0.0000000  0.0000000 )    f =( -0.2500000 )
                  (  0.0000000  1.0000000  0.0000000 )       ( -0.2500000 )
                  (  0.0000000  0.0000000 -1.0000000 )       ( -0.2500000 )


      isym = 27     inv. 180 deg rotation - cart. axis [0,1,0]   

 cryst.   s(27) = (     0          1         -1      )    f =( -0.2500000 )
                  (     0          1          0      )       ( -0.2500000 )
                  (    -1          1          0      )       ( -0.2500000 )

 cart.    s(27) = (  1.0000000  0.0000000  0.0000000 )    f =( -0.2500000 )
                  (  0.0000000 -1.0000000  0.0000000 )       ( -0.2500000 )
                  (  0.0000000  0.0000000  1.0000000 )       ( -0.2500000 )


      isym = 28     inv. 180 deg rotation - cart. axis [1,0,0]   

 cryst.   s(28) = (     0         -1          1      )    f =( -0.2500000 )
                  (    -1          0          1      )       ( -0.2500000 )
                  (     0          0          1      )       ( -0.2500000 )

 cart.    s(28) = ( -1.0000000  0.0000000  0.0000000 )    f =( -0.2500000 )
                  (  0.0000000  1.0000000  0.0000000 )       ( -0.2500000 )
                  (  0.0000000  0.0000000  1.0000000 )       ( -0.2500000 )


      isym = 29     inv. 180 deg rotation - cart. axis [1,1,0]   

 cryst.   s(29) = (    -1          0          0      )
                  (    -1          1          0      )
                  (    -1          0          1      )

 cart.    s(29) = (  0.0000000 -1.0000000  0.0000000 )
                  ( -1.0000000  0.0000000  0.0000000 )
                  (  0.0000000  0.0000000  1.0000000 )


      isym = 30     inv. 180 deg rotation - cart. axis [1,-1,0]  

 cryst.   s(30) = (     1          0          0      )
                  (     0          0          1      )
                  (     0          1          0      )

 cart.    s(30) = (  0.0000000  1.0000000  0.0000000 )
                  (  1.0000000  0.0000000  0.0000000 )
                  (  0.0000000  0.0000000  1.0000000 )


      isym = 31     inv.  90 deg rotation - cart. axis [0,0,-1]  

 cryst.   s(31) = (     0         -1          1      )
                  (     1         -1          0      )
                  (     0         -1          0      )

 cart.    s(31) = (  0.0000000 -1.0000000  0.0000000 )
                  (  1.0000000  0.0000000  0.0000000 )
                  (  0.0000000  0.0000000 -1.0000000 )


      isym = 32     inv.  90 deg rotation - cart. axis [0,0,1]   

 cryst.   s(32) = (     0          1         -1      )
                  (     0          0         -1      )
                  (     1          0         -1      )

 cart.    s(32) = (  0.0000000  1.0000000  0.0000000 )
                  ( -1.0000000  0.0000000  0.0000000 )
                  (  0.0000000  0.0000000 -1.0000000 )


      isym = 33     inv. 180 deg rotation - cart. axis [1,0,1]   

 cryst.   s(33) = (     1         -1          0      )
                  (     0         -1          0      )
                  (     0         -1          1      )

 cart.    s(33) = (  0.0000000  0.0000000 -1.0000000 )
                  (  0.0000000  1.0000000  0.0000000 )
                  ( -1.0000000  0.0000000  0.0000000 )


      isym = 34     inv. 180 deg rotation - cart. axis [-1,0,1]  

 cryst.   s(34) = (     0          0          1      )
                  (     0          1          0      )
                  (     1          0          0      )

 cart.    s(34) = (  0.0000000  0.0000000  1.0000000 )
                  (  0.0000000  1.0000000  0.0000000 )
                  (  1.0000000  0.0000000  0.0000000 )


      isym = 35     inv.  90 deg rotation - cart. axis [0,1,0]   

 cryst.   s(35) = (    -1          1          0      )
                  (    -1          0          1      )
                  (    -1          0          0      )

 cart.    s(35) = (  0.0000000  0.0000000 -1.0000000 )
                  (  0.0000000 -1.0000000  0.0000000 )
                  (  1.0000000  0.0000000  0.0000000 )


      isym = 36     inv.  90 deg rotation - cart. axis [0,-1,0]  

 cryst.   s(36) = (     0          0         -1      )
                  (     1          0         -1      )
                  (     0          1         -1      )

 cart.    s(36) = (  0.0000000  0.0000000  1.0000000 )
                  (  0.0000000 -1.0000000  0.0000000 )
                  ( -1.0000000  0.0000000  0.0000000 )


      isym = 37     inv. 180 deg rotation - cart. axis [0,1,1]   

 cryst.   s(37) = (     1          0         -1      )
                  (     0          1         -1      )
                  (     0          0         -1      )

 cart.    s(37) = (  1.0000000  0.0000000  0.0000000 )
                  (  0.0000000  0.0000000 -1.0000000 )
                  (  0.0000000 -1.0000000  0.0000000 )


      isym = 38     inv. 180 deg rotation - cart. axis [0,1,-1]  

 cryst.   s(38) = (     0          1          0      )
                  (     1          0          0      )
                  (     0          0          1      )

 cart.    s(38) = (  1.0000000  0.0000000  0.0000000 )
                  (  0.0000000  0.0000000  1.0000000 )
                  (  0.0000000  1.0000000  0.0000000 )


      isym = 39     inv.  90 deg rotation - cart. axis [-1,0,0]  

 cryst.   s(39) = (    -1          0          1      )
                  (    -1          0          0      )
                  (    -1          1          0      )

 cart.    s(39) = ( -1.0000000  0.0000000  0.0000000 )
                  (  0.0000000  0.0000000 -1.0000000 )
                  (  0.0000000  1.0000000  0.0000000 )


      isym = 40     inv.  90 deg rotation - cart. axis [1,0,0]   

 cryst.   s(40) = (     0         -1          0      )
                  (     0         -1          1      )
                  (     1         -1          0      )

 cart.    s(40) = ( -1.0000000  0.0000000  0.0000000 )
                  (  0.0000000  0.0000000  1.0000000 )
                  (  0.0000000 -1.0000000  0.0000000 )


      isym = 41     inv. 120 deg rotation - cart. axis [-1,-1,-1]

 cryst.   s(41) = (     0         -1          0      )    f =( -0.2500000 )
                  (     0          0         -1      )       ( -0.2500000 )
                  (    -1          0          0      )       ( -0.2500000 )

 cart.    s(41) = (  0.0000000 -1.0000000  0.0000000 )    f =( -0.2500000 )
                  (  0.0000000  0.0000000 -1.0000000 )       ( -0.2500000 )
                  ( -1.0000000  0.0000000  0.0000000 )       ( -0.2500000 )


      isym = 42     inv. 120 deg rotation - cart. axis [-1,1,1]  

 cryst.   s(42) = (     0          1          0      )    f =( -0.2500000 )
                  (    -1          1          0      )       ( -0.2500000 )
                  (     0          1         -1      )       ( -0.2500000 )

 cart.    s(42) = (  0.0000000  1.0000000  0.0000000 )    f =( -0.2500000 )
                  (  0.0000000  0.0000000 -1.0000000 )       ( -0.2500000 )
                  (  1.0000000  0.0000000  0.0000000 )       ( -0.2500000 )


      isym = 43     inv. 120 deg rotation - cart. axis [1,1,-1]  

 cryst.   s(43) = (    -1          0          1      )    f =( -0.2500000 )
                  (     0          0          1      )       ( -0.2500000 )
                  (     0         -1          1      )       ( -0.2500000 )

 cart.    s(43) = (  0.0000000 -1.0000000  0.0000000 )    f =( -0.2500000 )
                  (  0.0000000  0.0000000  1.0000000 )       ( -0.2500000 )
                  (  1.0000000  0.0000000  0.0000000 )       ( -0.2500000 )


      isym = 44     inv. 120 deg rotation - cart. axis [1,-1,1]  

 cryst.   s(44) = (     1          0         -1      )    f =( -0.2500000 )
                  (     1         -1          0      )       ( -0.2500000 )
                  (     1          0          0      )       ( -0.2500000 )

 cart.    s(44) = (  0.0000000  1.0000000  0.0000000 )    f =( -0.2500000 )
                  (  0.0000000  0.0000000  1.0000000 )       ( -0.2500000 )
                  ( -1.0000000  0.0000000  0.0000000 )       ( -0.2500000 )


      isym = 45     inv. 120 deg rotation - cart. axis [1,1,1]   

 cryst.   s(45) = (     0          0         -1      )    f =( -0.2500000 )
                  (    -1          0          0      )       ( -0.2500000 )
                  (     0         -1          0      )       ( -0.2500000 )

 cart.    s(45) = (  0.0000000  0.0000000 -1.0000000 )    f =( -0.2500000 )
                  ( -1.0000000  0.0000000  0.0000000 )       ( -0.2500000 )
                  (  0.0000000 -1.0000000  0.0000000 )       ( -0.2500000 )


      isym = 46     inv. 120 deg rotation - cart. axis [-1,1,-1] 

 cryst.   s(46) = (     0          0          1      )    f =( -0.2500000 )
                  (     0         -1          1      )       ( -0.2500000 )
                  (    -1          0          1      )       ( -0.2500000 )

 cart.    s(46) = (  0.0000000  0.0000000 -1.0000000 )    f =( -0.2500000 )
                  (  1.0000000  0.0000000  0.0000000 )       ( -0.2500000 )
                  (  0.0000000  1.0000000  0.0000000 )       ( -0.2500000 )


      isym = 47     inv. 120 deg rotation - cart. axis [1,-1,-1] 

 cryst.   s(47) = (     1         -1          0      )    f =( -0.2500000 )
                  (     1          0          0      )       ( -0.2500000 )
                  (     1          0         -1      )       ( -0.2500000 )

 cart.    s(47) = (  0.0000000  0.0000000  1.0000000 )    f =( -0.2500000 )
                  (  1.0000000  0.0000000  0.0000000 )       ( -0.2500000 )
                  (  0.0000000 -1.0000000  0.0000000 )       ( -0.2500000 )


      isym = 48     inv. 120 deg rotation - cart. axis [-1,-1,1] 

 cryst.   s(48) = (    -1          1          0      )    f =( -0.2500000 )
                  (     0          1         -1      )       ( -0.2500000 )
                  (     0          1          0      )       ( -0.2500000 )

 cart.    s(48) = (  0.0000000  0.0000000  1.0000000 )    f =( -0.2500000 )
                  ( -1.0000000  0.0000000  0.0000000 )       ( -0.2500000 )
                  (  0.0000000  1.0000000  0.0000000 )       ( -0.2500000 )


   Cartesian axes

     site n.     atom                  positions (alat units)
         1           C   tau(   1) = (   0.5000000   0.5000000   0.5000000  )
         2           C   tau(   2) = (   0.7500000   0.7500000   0.7500000  )

   Crystallographic axes

     site n.     atom                  positions (cryst. coord.)
         1           C   tau(   1) = (  0.5000000  0.5000000  0.5000000  )
         2           C   tau(   2) = (  0.7500000  0.7500000  0.7500000  )

     number of k points=   101  Methfessel-Paxton smearing, width (Ry)=  0.0100
                       cart. coord. in units 2pi/alat
        k(    1) = (   0.0000000   1.0000000   0.5000000), wk =   0.0198020
        k(    2) = (   0.0250000   0.9250000   0.5000000), wk =   0.0198020
        k(    3) = (   0.0500000   0.8500000   0.5000000), wk =   0.0198020
        k(    4) = (   0.0750000   0.7750000   0.5000000), wk =   0.0198020
        k(    5) = (   0.1000000   0.7000000   0.5000000), wk =   0.0198020
        k(    6) = (   0.1250000   0.6250000   0.5000000), wk =   0.0198020
        k(    7) = (   0.1500000   0.5500000   0.5000000), wk =   0.0198020
        k(    8) = (   0.1750000   0.4750000   0.5000000), wk =   0.0198020
        k(    9) = (   0.2000000   0.4000000   0.5000000), wk =   0.0198020
        k(   10) = (   0.2250000   0.3250000   0.5000000), wk =   0.0198020
        k(   11) = (   0.2500000   0.2500000   0.5000000), wk =   0.0198020
        k(   12) = (   0.2750000   0.1750000   0.5000000), wk =   0.0198020
        k(   13) = (   0.3000000   0.1000000   0.5000000), wk =   0.0198020
        k(   14) = (   0.3250000   0.0250000   0.5000000), wk =   0.0198020
        k(   15) = (   0.3500000  -0.0500000   0.5000000), wk =   0.0198020
        k(   16) = (   0.3750000  -0.1250000   0.5000000), wk =   0.0198020
        k(   17) = (   0.4000000  -0.2000000   0.5000000), wk =   0.0198020
        k(   18) = (   0.4250000  -0.2750000   0.5000000), wk =   0.0198020
        k(   19) = (   0.4500000  -0.3500000   0.5000000), wk =   0.0198020
        k(   20) = (   0.4750000  -0.4250000   0.5000000), wk =   0.0198020
        k(   21) = (   0.5000000  -0.5000000   0.5000000), wk =   0.0198020
        k(   22) = (   0.4750000  -0.4750000   0.4750000), wk =   0.0198020
        k(   23) = (   0.4500000  -0.4500000   0.4500000), wk =   0.0198020
        k(   24) = (   0.4250000  -0.4250000   0.4250000), wk =   0.0198020
        k(   25) = (   0.4000000  -0.4000000   0.4000000), wk =   0.0198020
        k(   26) = (   0.3750000  -0.3750000   0.3750000), wk =   0.0198020
        k(   27) = (   0.3500000  -0.3500000   0.3500000), wk =   0.0198020
        k(   28) = (   0.3250000  -0.3250000   0.3250000), wk =   0.0198020
        k(   29) = (   0.3000000  -0.3000000   0.3000000), wk =   0.0198020
        k(   30) = (   0.2750000  -0.2750000   0.2750000), wk =   0.0198020
        k(   31) = (   0.2500000  -0.2500000   0.2500000), wk =   0.0198020
        k(   32) = (   0.2250000  -0.2250000   0.2250000), wk =   0.0198020
        k(   33) = (   0.2000000  -0.2000000   0.2000000), wk =   0.0198020
        k(   34) = (   0.1750000  -0.1750000   0.1750000), wk =   0.0198020
        k(   35) = (   0.1500000  -0.1500000   0.1500000), wk =   0.0198020
        k(   36) = (   0.1250000  -0.1250000   0.1250000), wk =   0.0198020
        k(   37) = (   0.1000000  -0.1000000   0.1000000), wk =   0.0198020
        k(   38) = (   0.0750000  -0.0750000   0.0750000), wk =   0.0198020
        k(   39) = (   0.0500000  -0.0500000   0.0500000), wk =   0.0198020
        k(   40) = (   0.0250000  -0.0250000   0.0250000), wk =   0.0198020
        k(   41) = (   0.0000000   0.0000000   0.0000000), wk =   0.0198020
        k(   42) = (   0.0000000   0.0000000   0.0500000), wk =   0.0198020
        k(   43) = (   0.0000000   0.0000000   0.1000000), wk =   0.0198020
        k(   44) = (   0.0000000   0.0000000   0.1500000), wk =   0.0198020
        k(   45) = (   0.0000000   0.0000000   0.2000000), wk =   0.0198020
        k(   46) = (   0.0000000   0.0000000   0.2500000), wk =   0.0198020
        k(   47) = (   0.0000000   0.0000000   0.3000000), wk =   0.0198020
        k(   48) = (   0.0000000   0.0000000   0.3500000), wk =   0.0198020
        k(   49) = (   0.0000000   0.0000000   0.4000000), wk =   0.0198020
        k(   50) = (   0.0000000   0.0000000   0.4500000), wk =   0.0198020
        k(   51) = (   0.0000000   0.0000000   0.5000000), wk =   0.0198020
        k(   52) = (   0.0000000   0.0000000   0.5500000), wk =   0.0198020
        k(   53) = (   0.0000000   0.0000000   0.6000000), wk =   0.0198020
        k(   54) = (   0.0000000   0.0000000   0.6500000), wk =   0.0198020
        k(   55) = (   0.0000000   0.0000000   0.7000000), wk =   0.0198020
        k(   56) = (   0.0000000   0.0000000   0.7500000), wk =   0.0198020
        k(   57) = (   0.0000000   0.0000000   0.8000000), wk =   0.0198020
        k(   58) = (   0.0000000   0.0000000   0.8500000), wk =   0.0198020
        k(   59) = (   0.0000000   0.0000000   0.9000000), wk =   0.0198020
        k(   60) = (   0.0000000   0.0000000   0.9500000), wk =   0.0198020
        k(   61) = (   0.0000000   0.0000000   1.0000000), wk =   0.0198020
        k(   62) = (   0.0500000   0.0250000   0.9500000), wk =   0.0198020
        k(   63) = (   0.1000000   0.0500000   0.9000000), wk =   0.0198020
        k(   64) = (   0.1500000   0.0750000   0.8500000), wk =   0.0198020
        k(   65) = (   0.2000000   0.1000000   0.8000000), wk =   0.0198020
        k(   66) = (   0.2500000   0.1250000   0.7500000), wk =   0.0198020
        k(   67) = (   0.3000000   0.1500000   0.7000000), wk =   0.0198020
        k(   68) = (   0.3500000   0.1750000   0.6500000), wk =   0.0198020
        k(   69) = (   0.4000000   0.2000000   0.6000000), wk =   0.0198020
        k(   70) = (   0.4500000   0.2250000   0.5500000), wk =   0.0198020
        k(   71) = (   0.5000000   0.2500000   0.5000000), wk =   0.0198020
        k(   72) = (   0.5500000   0.2750000   0.4500000), wk =   0.0198020
        k(   73) = (   0.6000000   0.3000000   0.4000000), wk =   0.0198020
        k(   74) = (   0.6500000   0.3250000   0.3500000), wk =   0.0198020
        k(   75) = (   0.7000000   0.3500000   0.3000000), wk =   0.0198020
        k(   76) = (   0.7500000   0.3750000   0.2500000), wk =   0.0198020
        k(   77) = (   0.8000000   0.4000000   0.2000000), wk =   0.0198020
        k(   78) = (   0.8500000   0.4250000   0.1500000), wk =   0.0198020
        k(   79) = (   0.9000000   0.4500000   0.1000000), wk =   0.0198020
        k(   80) = (   0.9500000   0.4750000   0.0500000), wk =   0.0198020
        k(   81) = (   1.0000000   0.5000000   0.0000000), wk =   0.0198020
        k(   82) = (   0.9875000   0.5125000   0.0000000), wk =   0.0198020
        k(   83) = (   0.9750000   0.5250000   0.0000000), wk =   0.0198020
        k(   84) = (   0.9625000   0.5375000   0.0000000), wk =   0.0198020
        k(   85) = (   0.9500000   0.5500000   0.0000000), wk =   0.0198020
        k(   86) = (   0.9375000   0.5625000   0.0000000), wk =   0.0198020
        k(   87) = (   0.9250000   0.5750000   0.0000000), wk =   0.0198020
        k(   88) = (   0.9125000   0.5875000   0.0000000), wk =   0.0198020
        k(   89) = (   0.9000000   0.6000000   0.0000000), wk =   0.0198020
        k(   90) = (   0.8875000   0.6125000   0.0000000), wk =   0.0198020
        k(   91) = (   0.8750000   0.6250000   0.0000000), wk =   0.0198020
        k(   92) = (   0.8625000   0.6375000   0.0000000), wk =   0.0198020
        k(   93) = (   0.8500000   0.6500000   0.0000000), wk =   0.0198020
        k(   94) = (   0.8375000   0.6625000   0.0000000), wk =   0.0198020
        k(   95) = (   0.8250000   0.6750000   0.0000000), wk =   0.0198020
        k(   96) = (   0.8125000   0.6875000   0.0000000), wk =   0.0198020
        k(   97) = (   0.8000000   0.7000000   0.0000000), wk =   0.0198020
        k(   98) = (   0.7875000   0.7125000   0.0000000), wk =   0.0198020
        k(   99) = (   0.7750000   0.7250000   0.0000000), wk =   0.0198020
        k(  100) = (   0.7625000   0.7375000   0.0000000), wk =   0.0198020
        k(  101) = (   0.7500000   0.7500000   0.0000000), wk =   0.0198020

                       cryst. coord.
        k(    1) = (   0.5000000   0.2500000   0.7500000), wk =   0.0198020
        k(    2) = (   0.4750000   0.2625000   0.7125000), wk =   0.0198020
        k(    3) = (   0.4500000   0.2750000   0.6750000), wk =   0.0198020
        k(    4) = (   0.4250000   0.2875000   0.6375000), wk =   0.0198020
        k(    5) = (   0.4000000   0.3000000   0.6000000), wk =   0.0198020
        k(    6) = (   0.3750000   0.3125000   0.5625000), wk =   0.0198020
        k(    7) = (   0.3500000   0.3250000   0.5250000), wk =   0.0198020
        k(    8) = (   0.3250000   0.3375000   0.4875000), wk =   0.0198020
        k(    9) = (   0.3000000   0.3500000   0.4500000), wk =   0.0198020
        k(   10) = (   0.2750000   0.3625000   0.4125000), wk =   0.0198020
        k(   11) = (   0.2500000   0.3750000   0.3750000), wk =   0.0198020
        k(   12) = (   0.2250000   0.3875000   0.3375000), wk =   0.0198020
        k(   13) = (   0.2000000   0.4000000   0.3000000), wk =   0.0198020
        k(   14) = (   0.1750000   0.4125000   0.2625000), wk =   0.0198020
        k(   15) = (   0.1500000   0.4250000   0.2250000), wk =   0.0198020
        k(   16) = (   0.1250000   0.4375000   0.1875000), wk =   0.0198020
        k(   17) = (   0.1000000   0.4500000   0.1500000), wk =   0.0198020
        k(   18) = (   0.0750000   0.4625000   0.1125000), wk =   0.0198020
        k(   19) = (   0.0500000   0.4750000   0.0750000), wk =   0.0198020
        k(   20) = (   0.0250000   0.4875000   0.0375000), wk =   0.0198020
        k(   21) = (   0.0000000   0.5000000   0.0000000), wk =   0.0198020
        k(   22) = (   0.0000000   0.4750000   0.0000000), wk =   0.0198020
        k(   23) = (   0.0000000   0.4500000   0.0000000), wk =   0.0198020
        k(   24) = (   0.0000000   0.4250000   0.0000000), wk =   0.0198020
        k(   25) = (   0.0000000   0.4000000   0.0000000), wk =   0.0198020
        k(   26) = (   0.0000000   0.3750000   0.0000000), wk =   0.0198020
        k(   27) = (   0.0000000   0.3500000   0.0000000), wk =   0.0198020
        k(   28) = (   0.0000000   0.3250000   0.0000000), wk =   0.0198020
        k(   29) = (   0.0000000   0.3000000   0.0000000), wk =   0.0198020
        k(   30) = (   0.0000000   0.2750000   0.0000000), wk =   0.0198020
        k(   31) = (   0.0000000   0.2500000   0.0000000), wk =   0.0198020
        k(   32) = (   0.0000000   0.2250000   0.0000000), wk =   0.0198020
        k(   33) = (   0.0000000   0.2000000   0.0000000), wk =   0.0198020
        k(   34) = (   0.0000000   0.1750000   0.0000000), wk =   0.0198020
        k(   35) = (   0.0000000   0.1500000   0.0000000), wk =   0.0198020
        k(   36) = (   0.0000000   0.1250000   0.0000000), wk =   0.0198020
        k(   37) = (   0.0000000   0.1000000   0.0000000), wk =   0.0198020
        k(   38) = (   0.0000000   0.0750000   0.0000000), wk =   0.0198020
        k(   39) = (   0.0000000   0.0500000   0.0000000), wk =   0.0198020
        k(   40) = (   0.0000000   0.0250000   0.0000000), wk =   0.0198020
        k(   41) = (   0.0000000   0.0000000   0.0000000), wk =   0.0198020
        k(   42) = (   0.0000000   0.0250000   0.0250000), wk =   0.0198020
        k(   43) = (   0.0000000   0.0500000   0.0500000), wk =   0.0198020
        k(   44) = (   0.0000000   0.0750000   0.0750000), wk =   0.0198020
        k(   45) = (   0.0000000   0.1000000   0.1000000), wk =   0.0198020
        k(   46) = (   0.0000000   0.1250000   0.1250000), wk =   0.0198020
        k(   47) = (   0.0000000   0.1500000   0.1500000), wk =   0.0198020
        k(   48) = (   0.0000000   0.1750000   0.1750000), wk =   0.0198020
        k(   49) = (   0.0000000   0.2000000   0.2000000), wk =   0.0198020
        k(   50) = (   0.0000000   0.2250000   0.2250000), wk =   0.0198020
        k(   51) = (   0.0000000   0.2500000   0.2500000), wk =   0.0198020
        k(   52) = (   0.0000000   0.2750000   0.2750000), wk =   0.0198020
        k(   53) = (   0.0000000   0.3000000   0.3000000), wk =   0.0198020
        k(   54) = (   0.0000000   0.3250000   0.3250000), wk =   0.0198020
        k(   55) = (   0.0000000   0.3500000   0.3500000), wk =   0.0198020
        k(   56) = (   0.0000000   0.3750000   0.3750000), wk =   0.0198020
        k(   57) = (   0.0000000   0.4000000   0.4000000), wk =   0.0198020
        k(   58) = (   0.0000000   0.4250000   0.4250000), wk =   0.0198020
        k(   59) = (   0.0000000   0.4500000   0.4500000), wk =   0.0198020
        k(   60) = (   0.0000000   0.4750000   0.4750000), wk =   0.0198020
        k(   61) = (   0.0000000   0.5000000   0.5000000), wk =   0.0198020
        k(   62) = (   0.0375000   0.5000000   0.4875000), wk =   0.0198020
        k(   63) = (   0.0750000   0.5000000   0.4750000), wk =   0.0198020
        k(   64) = (   0.1125000   0.5000000   0.4625000), wk =   0.0198020
        k(   65) = (   0.1500000   0.5000000   0.4500000), wk =   0.0198020
        k(   66) = (   0.1875000   0.5000000   0.4375000), wk =   0.0198020
        k(   67) = (   0.2250000   0.5000000   0.4250000), wk =   0.0198020
        k(   68) = (   0.2625000   0.5000000   0.4125000), wk =   0.0198020
        k(   69) = (   0.3000000   0.5000000   0.4000000), wk =   0.0198020
        k(   70) = (   0.3375000   0.5000000   0.3875000), wk =   0.0198020
        k(   71) = (   0.3750000   0.5000000   0.3750000), wk =   0.0198020
        k(   72) = (   0.4125000   0.5000000   0.3625000), wk =   0.0198020
        k(   73) = (   0.4500000   0.5000000   0.3500000), wk =   0.0198020
        k(   74) = (   0.4875000   0.5000000   0.3375000), wk =   0.0198020
        k(   75) = (   0.5250000   0.5000000   0.3250000), wk =   0.0198020
        k(   76) = (   0.5625000   0.5000000   0.3125000), wk =   0.0198020
        k(   77) = (   0.6000000   0.5000000   0.3000000), wk =   0.0198020
        k(   78) = (   0.6375000   0.5000000   0.2875000), wk =   0.0198020
        k(   79) = (   0.6750000   0.5000000   0.2750000), wk =   0.0198020
        k(   80) = (   0.7125000   0.5000000   0.2625000), wk =   0.0198020
        k(   81) = (   0.7500000   0.5000000   0.2500000), wk =   0.0198020
        k(   82) = (   0.7500000   0.4937500   0.2562500), wk =   0.0198020
        k(   83) = (   0.7500000   0.4875000   0.2625000), wk =   0.0198020
        k(   84) = (   0.7500000   0.4812500   0.2687500), wk =   0.0198020
        k(   85) = (   0.7500000   0.4750000   0.2750000), wk =   0.0198020
        k(   86) = (   0.7500000   0.4687500   0.2812500), wk =   0.0198020
        k(   87) = (   0.7500000   0.4625000   0.2875000), wk =   0.0198020
        k(   88) = (   0.7500000   0.4562500   0.2937500), wk =   0.0198020
        k(   89) = (   0.7500000   0.4500000   0.3000000), wk =   0.0198020
        k(   90) = (   0.7500000   0.4437500   0.3062500), wk =   0.0198020
        k(   91) = (   0.7500000   0.4375000   0.3125000), wk =   0.0198020
        k(   92) = (   0.7500000   0.4312500   0.3187500), wk =   0.0198020
        k(   93) = (   0.7500000   0.4250000   0.3250000), wk =   0.0198020
        k(   94) = (   0.7500000   0.4187500   0.3312500), wk =   0.0198020
        k(   95) = (   0.7500000   0.4125000   0.3375000), wk =   0.0198020
        k(   96) = (   0.7500000   0.4062500   0.3437500), wk =   0.0198020
        k(   97) = (   0.7500000   0.4000000   0.3500000), wk =   0.0198020
        k(   98) = (   0.7500000   0.3937500   0.3562500), wk =   0.0198020
        k(   99) = (   0.7500000   0.3875000   0.3625000), wk =   0.0198020
        k(  100) = (   0.7500000   0.3812500   0.3687500), wk =   0.0198020
        k(  101) = (   0.7500000   0.3750000   0.3750000), wk =   0.0198020

     Dense  grid:     7631 G-vectors     FFT dimensions: (  32,  32,  32)

     Smooth grid:     2637 G-vectors     FFT dimensions: (  20,  20,  20)

     Dynamical RAM for                 wfc:       0.00 MB

     Dynamical RAM for     wfc (w. buffer):       0.40 MB

     Dynamical RAM for           str. fact:       0.01 MB

     Dynamical RAM for           local pot:       0.00 MB

     Dynamical RAM for          nlocal pot:       0.01 MB

     Dynamical RAM for                qrad:       0.41 MB

     Dynamical RAM for          rho,v,vnew:       0.13 MB

     Dynamical RAM for           G-vectors:       0.05 MB

     Dynamical RAM for          h,s,v(r/c):       0.01 MB

     Dynamical RAM for          <psi|beta>:       0.00 MB

     Dynamical RAM for                 psi:       0.01 MB

     Dynamical RAM for                hpsi:       0.01 MB

     Dynamical RAM for                spsi:       0.01 MB

     Dynamical RAM for      wfcinit/wfcrot:       0.01 MB

     Dynamical RAM for           addusdens:       0.52 MB

     Estimated static dynamical RAM per process >       1.19 MB

     Estimated max dynamical RAM per process >       1.71 MB

     Estimated total dynamical RAM >      17.10 MB

     Check: negative core charge=   -0.000014

     The potential is recalculated from file :
     ./work/pwscf.save/charge-density

     Starting wfcs are    8 randomized atomic wfcs
     Checking if some PAW data can be deallocated... 

     Band Structure Calculation
     Davidson diagonalization with overlap

     Computing kpt #:     1  of   101
     total cpu time spent up to now is        0.5 secs

     Computing kpt #:     2  of   101
     total cpu time spent up to now is        0.6 secs

     Computing kpt #:     3  of   101
     total cpu time spent up to now is        0.6 secs

     Computing kpt #:     4  of   101
     total cpu time spent up to now is        0.6 secs

     Computing kpt #:     5  of   101
     total cpu time spent up to now is        0.6 secs

     Computing kpt #:     6  of   101
     total cpu time spent up to now is        0.6 secs

     Computing kpt #:     7  of   101
     total cpu time spent up to now is        0.6 secs

     Computing kpt #:     8  of   101
     total cpu time spent up to now is        0.6 secs

     Computing kpt #:     9  of   101
     total cpu time spent up to now is        0.6 secs

     Computing kpt #:    10  of   101
     total cpu time spent up to now is        0.6 secs

     Computing kpt #:    11  of   101
     total cpu time spent up to now is        0.6 secs

     Computing kpt #:    12  of   101
     total cpu time spent up to now is        0.6 secs

     Computing kpt #:    13  of   101
     total cpu time spent up to now is        0.6 secs

     Computing kpt #:    14  of   101
     total cpu time spent up to now is        0.6 secs

     Computing kpt #:    15  of   101
     total cpu time spent up to now is        0.6 secs

     Computing kpt #:    16  of   101
     total cpu time spent up to now is        0.6 secs

     Computing kpt #:    17  of   101
     total cpu time spent up to now is        0.6 secs

     Computing kpt #:    18  of   101
     total cpu time spent up to now is        0.6 secs

     Computing kpt #:    19  of   101
     total cpu time spent up to now is        0.7 secs

     Computing kpt #:    20  of   101
     total cpu time spent up to now is        0.7 secs

     Computing kpt #:    21  of   101
     total cpu time spent up to now is        0.7 secs

     Computing kpt #:    22  of   101
     total cpu time spent up to now is        0.7 secs

     Computing kpt #:    23  of   101
     total cpu time spent up to now is        0.7 secs

     Computing kpt #:    24  of   101
     total cpu time spent up to now is        0.7 secs

     Computing kpt #:    25  of   101
     total cpu time spent up to now is        0.7 secs

     Computing kpt #:    26  of   101
     total cpu time spent up to now is        0.7 secs

     Computing kpt #:    27  of   101
     total cpu time spent up to now is        0.7 secs

     Computing kpt #:    28  of   101
     total cpu time spent up to now is        0.7 secs

     Computing kpt #:    29  of   101
     total cpu time spent up to now is        0.7 secs

     Computing kpt #:    30  of   101
     total cpu time spent up to now is        0.7 secs

     Computing kpt #:    31  of   101
     total cpu time spent up to now is        0.7 secs

     Computing kpt #:    32  of   101
     total cpu time spent up to now is        0.7 secs

     Computing kpt #:    33  of   101
     total cpu time spent up to now is        0.7 secs

     Computing kpt #:    34  of   101
     total cpu time spent up to now is        0.7 secs

     Computing kpt #:    35  of   101
     total cpu time spent up to now is        0.7 secs

     Computing kpt #:    36  of   101
     total cpu time spent up to now is        0.7 secs

     Computing kpt #:    37  of   101
     total cpu time spent up to now is        0.8 secs

     Computing kpt #:    38  of   101
     total cpu time spent up to now is        0.8 secs

     Computing kpt #:    39  of   101
     total cpu time spent up to now is        0.8 secs

     Computing kpt #:    40  of   101
     total cpu time spent up to now is        0.8 secs

     Computing kpt #:    41  of   101
     total cpu time spent up to now is        0.8 secs

     Computing kpt #:    42  of   101
     total cpu time spent up to now is        0.8 secs

     Computing kpt #:    43  of   101
     total cpu time spent up to now is        0.8 secs

     Computing kpt #:    44  of   101
     total cpu time spent up to now is        0.8 secs

     Computing kpt #:    45  of   101
     total cpu time spent up to now is        0.8 secs

     Computing kpt #:    46  of   101
     total cpu time spent up to now is        0.8 secs

     Computing kpt #:    47  of   101
     total cpu time spent up to now is        0.8 secs

     Computing kpt #:    48  of   101
     total cpu time spent up to now is        0.8 secs

     Computing kpt #:    49  of   101
     total cpu time spent up to now is        0.8 secs

     Computing kpt #:    50  of   101
     total cpu time spent up to now is        0.8 secs

     Computing kpt #:    51  of   101
     total cpu time spent up to now is        0.8 secs

     Computing kpt #:    52  of   101
     total cpu time spent up to now is        0.8 secs

     Computing kpt #:    53  of   101
     total cpu time spent up to now is        0.8 secs

     Computing kpt #:    54  of   101
     total cpu time spent up to now is        0.9 secs

     Computing kpt #:    55  of   101
     total cpu time spent up to now is        0.9 secs

     Computing kpt #:    56  of   101
     total cpu time spent up to now is        0.9 secs

     Computing kpt #:    57  of   101
     total cpu time spent up to now is        0.9 secs

     Computing kpt #:    58  of   101
     total cpu time spent up to now is        0.9 secs

     Computing kpt #:    59  of   101
     total cpu time spent up to now is        0.9 secs

     Computing kpt #:    60  of   101
     total cpu time spent up to now is        0.9 secs

     Computing kpt #:    61  of   101
     total cpu time spent up to now is        0.9 secs

     Computing kpt #:    62  of   101
     total cpu time spent up to now is        0.9 secs

     Computing kpt #:    63  of   101
     total cpu time spent up to now is        0.9 secs

     Computing kpt #:    64  of   101
     total cpu time spent up to now is        0.9 secs

     Computing kpt #:    65  of   101
     total cpu time spent up to now is        0.9 secs

     Computing kpt #:    66  of   101
     total cpu time spent up to now is        0.9 secs

     Computing kpt #:    67  of   101
     total cpu time spent up to now is        0.9 secs

     Computing kpt #:    68  of   101
     total cpu time spent up to now is        0.9 secs

     Computing kpt #:    69  of   101
     total cpu time spent up to now is        0.9 secs

     Computing kpt #:    70  of   101
     total cpu time spent up to now is        0.9 secs

     Computing kpt #:    71  of   101
     total cpu time spent up to now is        1.0 secs

     Computing kpt #:    72  of   101
     total cpu time spent up to now is        1.0 secs

     Computing kpt #:    73  of   101
     total cpu time spent up to now is        1.0 secs

     Computing kpt #:    74  of   101
     total cpu time spent up to now is        1.0 secs

     Computing kpt #:    75  of   101
     total cpu time spent up to now is        1.0 secs

     Computing kpt #:    76  of   101
     total cpu time spent up to now is        1.0 secs

     Computing kpt #:    77  of   101
     total cpu time spent up to now is        1.0 secs

     Computing kpt #:    78  of   101
     total cpu time spent up to now is        1.0 secs

     Computing kpt #:    79  of   101
     total cpu time spent up to now is        1.0 secs

     Computing kpt #:    80  of   101
     total cpu time spent up to now is        1.0 secs

     Computing kpt #:    81  of   101
     total cpu time spent up to now is        1.0 secs

     Computing kpt #:    82  of   101
     total cpu time spent up to now is        1.0 secs

     Computing kpt #:    83  of   101
     total cpu time spent up to now is        1.0 secs

     Computing kpt #:    84  of   101
     total cpu time spent up to now is        1.0 secs

     Computing kpt #:    85  of   101
     total cpu time spent up to now is        1.0 secs

     Computing kpt #:    86  of   101
     total cpu time spent up to now is        1.0 secs

     Computing kpt #:    87  of   101
     total cpu time spent up to now is        1.1 secs

     Computing kpt #:    88  of   101
     total cpu time spent up to now is        1.1 secs

     Computing kpt #:    89  of   101
     total cpu time spent up to now is        1.1 secs

     Computing kpt #:    90  of   101
     total cpu time spent up to now is        1.1 secs

     Computing kpt #:    91  of   101
     total cpu time spent up to now is        1.1 secs

     Computing kpt #:    92  of   101
     total cpu time spent up to now is        1.1 secs

     Computing kpt #:    93  of   101
     total cpu time spent up to now is        1.1 secs

     Computing kpt #:    94  of   101
     total cpu time spent up to now is        1.1 secs

     Computing kpt #:    95  of   101
     total cpu time spent up to now is        1.1 secs

     Computing kpt #:    96  of   101
     total cpu time spent up to now is        1.1 secs

     Computing kpt #:    97  of   101
     total cpu time spent up to now is        1.1 secs

     Computing kpt #:    98  of   101
     total cpu time spent up to now is        1.1 secs

     Computing kpt #:    99  of   101
     total cpu time spent up to now is        1.1 secs

     Computing kpt #:   100  of   101
     total cpu time spent up to now is        1.1 secs

     Computing kpt #:   101  of   101
     total cpu time spent up to now is        1.1 secs

     ethr =  1.87E-06,  avg # of iterations =  7.4

     total cpu time spent up to now is        1.1 secs

     End of band structure calculation

          k = 0.0000 1.0000 0.5000 (   328 PWs)   bands (ev):

     1.4369   1.4369   5.0721   5.0721  24.1029  24.1029  25.8353  25.8353

          k = 0.0250 0.9250 0.5000 (   322 PWs)   bands (ev):

     0.7412   1.9829   4.6345   5.8021  23.4309  24.3514  25.8816  26.3430

          k = 0.0500 0.8500 0.5000 (   326 PWs)   bands (ev):

    -0.0355   2.3000   4.6039   6.7078  22.6838  24.2195  26.2816  27.1610

          k = 0.0750 0.7750 0.5000 (   325 PWs)   bands (ev):

    -0.8373   2.4083   4.9758   7.6883  22.0367  24.0109  26.7465  27.8775

          k = 0.1000 0.7000 0.5000 (   324 PWs)   bands (ev):

    -1.6196   2.4523   5.6009   8.6496  21.5700  23.8142  26.9923  28.0456

          k = 0.1250 0.6250 0.5000 (   326 PWs)   bands (ev):

    -2.3508   2.5364   6.3588   9.5012  21.3380  23.6271  26.3390  28.1821

          k = 0.1500 0.5500 0.5000 (   325 PWs)   bands (ev):

    -3.0097   2.7015   7.1829  10.1612  21.3754  23.3744  25.1931  28.4158

          k = 0.1750 0.4750 0.5000 (   325 PWs)   bands (ev):

    -3.5825   2.9601   8.0218  10.5705  21.6710  22.8156  24.3168  28.4091

          k = 0.2000 0.4000 0.5000 (   324 PWs)   bands (ev):

    -4.0601   3.3140   8.8194  10.7019  21.7658  22.3088  23.9498  28.0827

          k = 0.2250 0.3250 0.5000 (   327 PWs)   bands (ev):

    -4.4364   3.7600   9.5057  10.5499  20.9689  22.9074  23.7651  27.5481

          k = 0.2500 0.2500 0.5000 (   328 PWs)   bands (ev):

    -4.7075   4.2917   9.8986  10.2313  20.4845  23.5819  23.5846  26.9818

          k = 0.2750 0.1750 0.5000 (   327 PWs)   bands (ev):

    -4.8707   4.8975   9.2834  10.4499  20.4361  23.3501  24.2069  26.5158

          k = 0.3000 0.1000 0.5000 (   321 PWs)   bands (ev):

    -4.9245   5.5519   8.3255  10.6341  20.7367  23.0670  24.7271  26.2100

          k = 0.3250 0.0250 0.5000 (   322 PWs)   bands (ev):

    -4.8688   6.1207   7.3447  10.7171  21.1751  22.7789  25.0838  26.1155

          k = 0.3500-0.0500 0.5000 (   322 PWs)   bands (ev):

    -4.7042   5.6546   7.3608  10.7384  21.5311  22.5460  25.0246  26.4817

          k = 0.3750-0.1250 0.5000 (   324 PWs)   bands (ev):

    -4.4330   4.5008   8.0661  10.7271  21.7063  22.3994  24.5715  27.2472

          k = 0.4000-0.2000 0.5000 (   324 PWs)   bands (ev):

    -4.0601   3.3140   8.8194  10.7019  21.7658  22.3088  23.9498  28.0827

          k = 0.4250-0.2750 0.5000 (   328 PWs)   bands (ev):

    -3.5964   2.1861   9.5200  10.6733  21.8081  22.2265  23.3060  28.7279

          k = 0.4500-0.3500 0.5000 (   329 PWs)   bands (ev):

    -3.0687   1.1711  10.0995  10.6482  21.8648  22.1311  22.7686  29.0660

          k = 0.4750-0.4250 0.5000 (   334 PWs)   bands (ev):

    -2.5566   0.3618  10.4877  10.6313  21.9181  22.0103  22.4553  29.1734

          k = 0.5000-0.5000 0.5000 (   332 PWs)   bands (ev):

    -2.3023   0.0078  10.6254  10.6254  21.9406  21.9406  22.3704  29.1890

          k = 0.4750-0.4750 0.4750 (   332 PWs)   bands (ev):

    -2.4676   0.2018  10.6365  10.6365  21.9392  21.9392  22.3644  29.1815

          k = 0.4500-0.4500 0.4500 (   335 PWs)   bands (ev):

    -2.8565   0.6765  10.6695  10.6695  21.9343  21.9343  22.3462  29.1569

          k = 0.4250-0.4250 0.4250 (   329 PWs)   bands (ev):

    -3.3303   1.2932  10.7246  10.7246  21.9236  21.9236  22.3157  29.1155

          k = 0.4000-0.4000 0.4000 (   323 PWs)   bands (ev):

    -3.8240   1.9856  10.8015  10.8015  21.9039  21.9039  22.2721  29.0522

          k = 0.3750-0.3750 0.3750 (   323 PWs)   bands (ev):

    -4.3113   2.7262  10.8996  10.8996  21.8684  21.8684  22.2144  28.9640

          k = 0.3500-0.3500 0.3500 (   326 PWs)   bands (ev):

    -4.7802   3.5019  11.0182  11.0182  21.8120  21.8120  22.1411  28.8490

          k = 0.3250-0.3250 0.3250 (   332 PWs)   bands (ev):

    -5.2250   4.3050  11.1573  11.1573  21.7283  21.7283  22.0501  28.7073

          k = 0.3000-0.3000 0.3000 (   326 PWs)   bands (ev):

    -5.6419   5.1302  11.3162  11.3162  21.6126  21.6126  21.9396  28.5425

          k = 0.2750-0.2750 0.2750 (   317 PWs)   bands (ev):

    -6.0291   5.9717  11.4937  11.4937  21.4611  21.4611  21.8068  28.3583

          k = 0.2500-0.2500 0.2500 (   323 PWs)   bands (ev):

    -6.3852   6.8245  11.6864  11.6864  21.2693  21.2693  21.6472  28.1610

          k = 0.2250-0.2250 0.2250 (   320 PWs)   bands (ev):

    -6.7092   7.6843  11.8936  11.8936  21.0430  21.0430  21.4577  27.9594

          k = 0.2000-0.2000 0.2000 (   320 PWs)   bands (ev):

    -7.0004   8.5425  12.1118  12.1118  20.7854  20.7854  21.2350  27.7607

          k = 0.1750-0.1750 0.1750 (   320 PWs)   bands (ev):

    -7.2582   9.3919  12.3372  12.3372  20.5050  20.5050  20.9767  27.5719

          k = 0.1500-0.1500 0.1500 (   326 PWs)   bands (ev):

    -7.4824  10.2215  12.5636  12.5636  20.2125  20.2125  20.6829  27.3986

          k = 0.1250-0.1250 0.1250 (   329 PWs)   bands (ev):

    -7.6725  11.0174  12.7851  12.7851  19.9221  19.9221  20.3559  27.2464

          k = 0.1000-0.1000 0.1000 (   329 PWs)   bands (ev):

    -7.8284  11.7597  12.9921  12.9921  19.6488  19.6488  20.0107  27.1189

          k = 0.0750-0.0750 0.0750 (   331 PWs)   bands (ev):

    -7.9497  12.4189  13.1734  13.1734  19.4095  19.4095  19.6667  27.0182

          k = 0.0500-0.0500 0.0500 (   331 PWs)   bands (ev):

    -8.0365  12.9547  13.3164  13.3164  19.2217  19.2217  19.3600  26.9458

          k = 0.0250-0.0250 0.0250 (   331 PWs)   bands (ev):

    -8.0886  13.3132  13.4087  13.4087  19.1011  19.1011  19.1404  26.9022

          k = 0.0000 0.0000 0.0000 (   331 PWs)   bands (ev):

    -8.1060  13.4407  13.4407  13.4407  19.0594  19.0594  19.0594  26.8877

          k = 0.0000 0.0000 0.0500 (   331 PWs)   bands (ev):

    -8.0828  13.3421  13.3421  13.3835  19.0408  19.1781  19.1781  26.9063

          k = 0.0000 0.0000 0.1000 (   331 PWs)   bands (ev):

    -8.0134  13.0696  13.0696  13.2143  18.9861  19.5104  19.5104  26.9523

          k = 0.0000 0.0000 0.1500 (   331 PWs)   bands (ev):

    -7.8977  12.6748  12.6748  12.9399  18.8989  20.0044  20.0044  26.9961

          k = 0.0000 0.0000 0.2000 (   327 PWs)   bands (ev):

    -7.7359  12.2079  12.2079  12.5711  18.7847  20.6093  20.6093  26.9873

          k = 0.0000 0.0000 0.2500 (   327 PWs)   bands (ev):

    -7.5282  11.7060  11.7060  12.1168  18.6498  21.2867  21.2867  26.8583

          k = 0.0000 0.0000 0.3000 (   327 PWs)   bands (ev):

    -7.2749  11.1936  11.1936  11.5893  18.5016  22.0114  22.0114  26.5457

          k = 0.0000 0.0000 0.3500 (   327 PWs)   bands (ev):

    -6.9764  10.6873  10.6873  10.9976  18.3470  22.7644  22.7644  26.0280

          k = 0.0000 0.0000 0.4000 (   331 PWs)   bands (ev):

    -6.6331  10.1977  10.1977  10.3498  18.1929  23.5339  23.5339  25.3425

          k = 0.0000 0.0000 0.4500 (   315 PWs)   bands (ev):

    -6.2453   9.6556   9.7330   9.7330  18.0468  24.3144  24.3144  24.5598

          k = 0.0000 0.0000 0.5000 (   311 PWs)   bands (ev):

    -5.8139   8.9196   9.2971   9.2971  17.9138  23.7420  25.0891  25.0891

          k = 0.0000 0.0000 0.5500 (   323 PWs)   bands (ev):

    -5.3397   8.1472   8.8939   8.8939  17.7971  22.9335  25.8541  25.8541

          k = 0.0000 0.0000 0.6000 (   323 PWs)   bands (ev):

    -4.8236   7.3471   8.5280   8.5280  17.7040  22.1632  26.6019  26.6019

          k = 0.0000 0.0000 0.6500 (   323 PWs)   bands (ev):

    -4.2665   6.5242   8.2009   8.2009  17.6379  21.4466  27.3229  27.3229

          k = 0.0000 0.0000 0.7000 (   323 PWs)   bands (ev):

    -3.6698   5.6847   7.9145   7.9145  17.6027  20.7924  28.0057  28.0057

          k = 0.0000 0.0000 0.7500 (   323 PWs)   bands (ev):

    -3.0349   4.8347   7.6700   7.6700  17.6019  20.2042  28.6361  28.6361

          k = 0.0000 0.0000 0.8000 (   322 PWs)   bands (ev):

    -2.3637   3.9806   7.4687   7.4687  17.6388  19.6830  29.1968  29.1968

          k = 0.0000 0.0000 0.8500 (   322 PWs)   bands (ev):

    -1.6582   3.1284   7.3113   7.3113  17.7168  19.2273  29.6673  29.6673

          k = 0.0000 0.0000 0.9000 (   326 PWs)   bands (ev):

    -0.9209   2.2837   7.1983   7.1983  17.8390  18.8351  30.0255  30.0255

          k = 0.0000 0.0000 0.9500 (   334 PWs)   bands (ev):

    -0.1546   1.4520   7.1302   7.1302  18.0084  18.5034  30.2499  30.2499

          k = 0.0000 0.0000 1.0000 (   326 PWs)   bands (ev):

     0.6380   0.6380   7.1077   7.1077  18.2291  18.2291  30.3271  30.3271

          k = 0.0500 0.0250 0.9500 (   331 PWs)   bands (ev):

    -0.1336   1.4675   6.9959   7.1366  18.1182  18.6325  30.1765  30.2121

          k = 0.1000 0.0500 0.9000 (   327 PWs)   bands (ev):

    -0.8307   2.3246   6.7029   7.2253  18.2337  19.3612  29.6986  29.8940

          k = 0.1500 0.0750 0.8500 (   326 PWs)   bands (ev):

    -1.4448   3.1369   6.3521   7.3782  18.5210  20.3861  28.8786  29.4144

          k = 0.2000 0.1000 0.8000 (   325 PWs)   bands (ev):

    -1.9704   3.7149   6.1787   7.6070  18.9471  21.6413  27.7756  28.8034

          k = 0.2500 0.1250 0.7500 (   328 PWs)   bands (ev):

    -2.4038   3.7885   6.4611   7.9378  19.4877  23.0427  26.5106  28.0824

          k = 0.3000 0.1500 0.7000 (   328 PWs)   bands (ev):

    -2.7427   3.4663   7.0470   8.4188  20.1180  24.3607  25.3500  27.2859

          k = 0.3500 0.1750 0.6500 (   326 PWs)   bands (ev):

    -2.9857   3.0201   7.6156   9.0671  20.8042  23.7899  25.8678  26.6886

          k = 0.4000 0.2000 0.6000 (   323 PWs)   bands (ev):

    -3.1323   2.5734   8.0876   9.7624  21.4797  22.8071  25.2737  27.6294

          k = 0.4500 0.2250 0.5500 (   326 PWs)   bands (ev):

    -3.1827   2.1743   8.4932  10.3028  21.7947  22.4497  24.3542  28.5291

          k = 0.5000 0.2500 0.5000 (   328 PWs)   bands (ev):

    -3.1379   1.8454   8.8397  10.5168  21.6893  22.6528  23.6990  28.8926

          k = 0.5500 0.2750 0.4500 (   330 PWs)   bands (ev):

    -2.9993   1.5991   9.0910  10.3417  21.7873  22.3274  23.8618  28.7909

          k = 0.6000 0.3000 0.4000 (   331 PWs)   bands (ev):

    -2.7699   1.4424   9.1322   9.9033  21.2328  22.9314  24.2173  28.4240

          k = 0.6500 0.3250 0.3500 (   323 PWs)   bands (ev):

    -2.4533   1.3795   8.6853   9.5471  20.6980  23.9416  24.5522  27.9499

          k = 0.7000 0.3500 0.3000 (   323 PWs)   bands (ev):

    -2.0550   1.4106   7.8645   9.2276  20.4446  24.4458  25.4396  27.4776

          k = 0.7500 0.3750 0.2500 (   323 PWs)   bands (ev):

    -1.5818   1.5315   6.9557   8.7377  20.5261  24.5190  26.4842  27.2318

          k = 0.8000 0.4000 0.2000 (   326 PWs)   bands (ev):

    -1.0430   1.7259   6.0706   8.0741  20.9261  24.5054  26.4479  27.8809

          k = 0.8500 0.4250 0.1500 (   325 PWs)   bands (ev):

    -0.4504   1.9474   5.2956   7.2993  21.5893  24.4596  26.1674  28.0625

          k = 0.9000 0.4500 0.1000 (   326 PWs)   bands (ev):

     0.1803   2.0732   4.7710   6.4880  22.4407  24.4040  25.9480  27.3984

          k = 0.9500 0.4750 0.0500 (   324 PWs)   bands (ev):

     0.8251   1.9080   4.6951   5.7164  23.3715  24.3344  25.8165  26.4481

          k = 1.0000 0.5000 0.0000 (   328 PWs)   bands (ev):

     1.4369   1.4369   5.0721   5.0721  24.1029  24.1029  25.8353  25.8353

          k = 0.9875 0.5125 0.0000 (   328 PWs)   bands (ev):

     1.3391   1.5276   4.9784   5.1794  23.9534  24.1776  25.8636  25.8833

          k = 0.9750 0.5250 0.0000 (   328 PWs)   bands (ev):

     1.2463   1.5999   4.8888   5.3092  23.6983  24.2370  25.9503  25.9970

          k = 0.9625 0.5375 0.0000 (   327 PWs)   bands (ev):

     1.1584   1.6554   4.8034   5.4595  23.3830  24.2813  26.0358  26.1916

          k = 0.9500 0.5500 0.0000 (   325 PWs)   bands (ev):

     1.0756   1.6957   4.7222   5.6271  23.0378  24.3121  26.1382  26.4182

          k = 0.9375 0.5625 0.0000 (   323 PWs)   bands (ev):

     0.9977   1.7234   4.6455   5.8091  22.6797  24.3306  26.2547  26.6602

          k = 0.9250 0.5750 0.0000 (   323 PWs)   bands (ev):

     0.9248   1.7404   4.5732   6.0021  22.3185  24.3395  26.3826  26.9085

          k = 0.9125 0.5875 0.0000 (   323 PWs)   bands (ev):

     0.8569   1.7491   4.5055   6.2027  21.9599  24.3409  26.5189  27.1575

          k = 0.9000 0.6000 0.0000 (   323 PWs)   bands (ev):

     0.7940   1.7512   4.4425   6.4077  21.6093  24.3370  26.6606  27.4034

          k = 0.8875 0.6125 0.0000 (   327 PWs)   bands (ev):

     0.7361   1.7484   4.3842   6.6136  21.2694  24.3292  26.8052  27.6428

          k = 0.8750 0.6250 0.0000 (   327 PWs)   bands (ev):

     0.6832   1.7423   4.3308   6.8175  20.9446  24.3191  26.9503  27.8731

          k = 0.8625 0.6375 0.0000 (   327 PWs)   bands (ev):

     0.6354   1.7339   4.2823   7.0161  20.6373  24.3076  27.0934  28.0918

          k = 0.8500 0.6500 0.0000 (   327 PWs)   bands (ev):

     0.5926   1.7243   4.2387   7.2060  20.3507  24.2957  27.2322  28.2962

          k = 0.8375 0.6625 0.0000 (   335 PWs)   bands (ev):

     0.5547   1.7142   4.1998   7.3840  20.0875  24.2830  27.3639  28.4833

          k = 0.8250 0.6750 0.0000 (   332 PWs)   bands (ev):

     0.5220   1.7044   4.1664   7.5473  19.8512  24.2721  27.4877  28.6523

          k = 0.8125 0.6875 0.0000 (   330 PWs)   bands (ev):

     0.4943   1.6953   4.1380   7.6921  19.6448  24.2623  27.5981  28.8002

          k = 0.8000 0.7000 0.0000 (   330 PWs)   bands (ev):

     0.4716   1.6873   4.1147   7.8156  19.4709  24.2538  27.6935  28.9240

          k = 0.7875 0.7125 0.0000 (   330 PWs)   bands (ev):

     0.4539   1.6808   4.0965   7.9150  19.3324  24.2469  27.7713  29.0225

          k = 0.7750 0.7250 0.0000 (   330 PWs)   bands (ev):

     0.4413   1.6760   4.0836   7.9880  19.2316  24.2419  27.8290  29.0941

          k = 0.7625 0.7375 0.0000 (   327 PWs)   bands (ev):

     0.4338   1.6731   4.0758   8.0327  19.1704  24.2389  27.8649  29.1379

          k = 0.7500 0.7500 0.0000 (   327 PWs)   bands (ev):

     0.4312   1.6721   4.0732   8.0477  19.1498  24.2379  27.8769  29.1524

     Writing all to output data dir ./work/pwscf.save/

     init_run     :      0.25s CPU      0.27s WALL (       1 calls)
     electrons    :      0.30s CPU      0.62s WALL (       1 calls)

     Called by init_run:
     wfcinit      :      0.00s CPU      0.00s WALL (       1 calls)
     wfcinit:atom :      0.00s CPU      0.00s WALL (     101 calls)
     wfcinit:wfcr :      0.05s CPU      0.06s WALL (     101 calls)
     potinit      :      0.13s CPU      0.14s WALL (       1 calls)
     hinit0       :      0.12s CPU      0.12s WALL (       1 calls)

     Called by electrons:
     c_bands      :      0.30s CPU      0.62s WALL (       1 calls)
     v_of_rho     :      0.00s CPU      0.00s WALL (       1 calls)
     v_h          :      0.00s CPU      0.00s WALL (       1 calls)
     v_xc         :      0.00s CPU      0.00s WALL (       1 calls)
     newd         :      0.00s CPU      0.00s WALL (       1 calls)
     PAW_pot      :      0.01s CPU      0.01s WALL (       1 calls)

     Called by c_bands:
     init_us_2    :      0.00s CPU      0.00s WALL (     101 calls)
     init_us_2:cp :      0.00s CPU      0.00s WALL (     101 calls)
     cegterg      :      0.21s CPU      0.24s WALL (     101 calls)

     Called by sum_band:

     Called by *egterg:
     cdiaghg      :      0.04s CPU      0.04s WALL (     848 calls)
     cegterg:over :      0.02s CPU      0.02s WALL (     747 calls)
     cegterg:upda :      0.00s CPU      0.00s WALL (     747 calls)
     cegterg:last :      0.00s CPU      0.00s WALL (     592 calls)
     h_psi        :      0.17s CPU      0.20s WALL (     949 calls)
     s_psi        :      0.00s CPU      0.00s WALL (     949 calls)
     g_psi        :      0.00s CPU      0.00s WALL (     747 calls)

     Called by h_psi:
     h_psi:calbec :      0.01s CPU      0.02s WALL (     949 calls)
     vloc_psi     :      0.15s CPU      0.18s WALL (     949 calls)
     add_vuspsi   :      0.00s CPU      0.00s WALL (     949 calls)

     General routines
     calbec       :      0.01s CPU      0.01s WALL (     949 calls)
     fft          :      0.10s CPU      0.11s WALL (      13 calls)
     ffts         :      0.11s CPU      0.11s WALL (       1 calls)
     fftw         :      0.14s CPU      0.17s WALL (   11884 calls)
     interpolate  :      0.11s CPU      0.11s WALL (       1 calls)

     Parallel routines

     PAW routines
     PAW_pot      :      0.01s CPU      0.01s WALL (       1 calls)

     PWSCF        :      0.73s CPU      1.89s WALL


   This run was terminated on:  13:54: 8  22Sep2023            

=------------------------------------------------------------------------------=
   JOB DONE.
=------------------------------------------------------------------------------=
