
     Program BANDS v.7.1 starts on 25Sep2023 at 14:11:39 

     This program is part of the open-source Quantum ESPRESSO suite
     for quantum simulation of materials; please cite
         "P. Giannozzi et al., J. Phys.:Condens. Matter 21 395502 (2009);
         "P. Giannozzi et al., J. Phys.:Condens. Matter 29 465901 (2017);
         "P. Giannozzi et al., J. Chem. Phys. 152 154105 (2020);
          URL http://www.quantum-espresso.org", 
     in publications or presentations arising from this work. More details at
     http://www.quantum-espresso.org/quote

     Parallel version (MPI & OpenMP), running on      10 processor cores
     Number of MPI processes:                10
     Threads/MPI process:                     1

     MPI processes distributed on     1 nodes
     R & G space division:  proc/nbgrp/npool/nimage =      10
     11181 MiB available memory on the printing compute node when the environment starts


     Reading xml data from directory:

     ./work/pwscf.save/
     file Mn.pbe-spn-kjpaw_psl.1.0.0.UPF: wavefunction(s)  3S 4S 3P 3D renormalized
     file O.pbe-n-kjpaw_psl.1.0.0.UPF: wavefunction(s)  2S 2P renormalized
     file Sr.pbe-spn-kjpaw_psl.1.0.0.UPF: wavefunction(s)  4P renormalized

     IMPORTANT: XC functional enforced from input :
     Exchange-correlation= PBE
                           (   1   4   3   4   0   0   0)
     Any further DFT definition will be discarded
     Please, verify this is what you really want


     Parallelization info
     --------------------
     sticks:   dense  smooth     PW     G-vecs:    dense   smooth      PW
     Min         297      97     29                12295     2273     377
     Max         299      98     30                12298     2276     380
     Sum        2981     973    293               122969    22743    3791

     Using Slab Decomposition

     Reading collected, re-writing distributed wavefunctions
     high-symmetry point:  0.5000 0.5000 0.5000   x coordinate   0.0000
     high-symmetry point:  0.0000 0.0000 0.0000   x coordinate   0.8660
     high-symmetry point:  0.0000 0.5000 0.0000   x coordinate   1.3660
     high-symmetry point:  0.5000 0.5000 0.0000   x coordinate   1.8660
     high-symmetry point:  0.0000 0.0000 0.0000   x coordinate   2.5731

     Plottable bands (eV) written to file bands.out.gnu
     Bands written to file bands.out

 **************************************************************************

                    xk=(   0.50000,   0.50000,   0.50000  )

     point group O_h (m-3m) 
     there are 10 classes
     the character table:

       E     8C3   3C2   6C4   6C2'  i     8S6   3s_h  6S4   6s_d 
A_1g   1.00  1.00  1.00  1.00  1.00  1.00  1.00  1.00  1.00  1.00
A_2g   1.00  1.00  1.00 -1.00 -1.00  1.00  1.00  1.00 -1.00 -1.00
E_g    2.00 -1.00  2.00  0.00  0.00  2.00 -1.00  2.00  0.00  0.00
T_1g   3.00  0.00 -1.00  1.00 -1.00  3.00  0.00 -1.00  1.00 -1.00
T_2g   3.00  0.00 -1.00 -1.00  1.00  3.00  0.00 -1.00 -1.00  1.00
A_1u   1.00  1.00  1.00  1.00  1.00 -1.00 -1.00 -1.00 -1.00 -1.00
A_2u   1.00  1.00  1.00 -1.00 -1.00 -1.00 -1.00 -1.00  1.00  1.00
E_u    2.00 -1.00  2.00  0.00  0.00 -2.00  1.00 -2.00  0.00  0.00
T_1u   3.00  0.00 -1.00  1.00 -1.00 -3.00  0.00  1.00 -1.00  1.00
T_2u   3.00  0.00 -1.00 -1.00  1.00 -3.00  0.00  1.00  1.00 -1.00

     the symmetry operations in each class and the name of the first element:

     E        1
                                                                 
     8C3     17   19   20   18   24   21   22   23
                                                                 
     3C2      2    4    3
                                                                 
     6C4      7    8   15   16   12   11
                                                                 
     6C2'     5    6   14   13   10    9
                                                                 
     i       25
                                                                 
     8S6     41   43   44   42   48   45   46   47
                                                                 
     3s_h    26   28   27
                                                                 
     6S4     31   32   39   40   36   35
                                                                 
     6s_d    29   30   38   37   34   33
                                                                 

     Band symmetry, O_h (m-3m)  point group:

     e(  1 -  1) =    -69.45809  eV     1   --> A_1g G_1   G_1+
     e(  2 -  4) =    -38.16891  eV     3   --> T_1u G_15  G_4-
     e(  5 -  5) =    -22.42252  eV     1   --> A_2u G_2'  G_2-
     e(  6 -  8) =     -6.61557  eV     3   --> T_1u G_15  G_4-
     e(  9 - 11) =     -4.77204  eV     3   --> T_2g G_25' G_5+
     e( 12 - 12) =      4.12965  eV     1   --> A_1g G_1   G_1+
     e( 13 - 14) =      5.27792  eV     2   --> E_g  G_12  G_3+
     e( 15 - 17) =      6.04747  eV     3   --> T_2g G_25' G_5+
     e( 18 - 20) =      9.92436  eV     3   --> T_1g G_15' G_4+
     e( 21 - 23) =     11.56089  eV     3   --> T_2g G_25' G_5+
     e( 24 - 25) =     15.02783  eV     2   --> E_g  G_12  G_3+
     e( 26 - 26) =     17.23156  eV     1   -->   ?

 **************************************************************************

 **************************************************************************

                    xk=(   0.47500,   0.47500,   0.47500  )

     point group C_3v (3m)  
     there are  3 classes
     the character table:

       E     2C3   3s_v 
A_1    1.00  1.00  1.00
A_2    1.00  1.00 -1.00
E      2.00 -1.00  0.00

     the symmetry operations in each class and the name of the first element:

     E        1
                                                                 
     2C3      2    3
                                                                 
     3s_v     4    5    6
                                                                 

     Band symmetry, C_3v (3m)   point group:

     e(  1 -  1) =    -69.45806  eV     1   --> A_1  L_1       
     e(  2 -  4) =    -38.16888  eV     3   --> A_1  L_1       
     e(  2 -  4) =    -38.16888  eV     3   --> E    L_3       
     e(  5 -  5) =    -22.42289  eV     1   --> A_1  L_1       
     e(  6 -  6) =     -6.63753  eV     1   --> A_1  L_1       
     e(  7 -  8) =     -6.61797  eV     2   --> E    L_3       
     e(  9 - 10) =     -4.76563  eV     2   --> E    L_3       
     e( 11 - 11) =     -4.75186  eV     1   --> A_1  L_1       
     e( 12 - 12) =      4.14808  eV     1   --> A_1  L_1       
     e( 13 - 14) =      5.28566  eV     2   --> E    L_3       
     e( 15 - 15) =      6.03905  eV     1   --> A_1  L_1       
     e( 16 - 17) =      6.05311  eV     2   --> E    L_3       
     e( 18 - 19) =      9.90456  eV     2   --> E    L_3       
     e( 20 - 20) =      9.91646  eV     1   --> A_2  L_2       
     e( 21 - 21) =     11.55108  eV     1   --> A_1  L_1       
     e( 22 - 23) =     11.55340  eV     2   --> E    L_3       
     e( 24 - 25) =     15.00234  eV     2   --> E    L_3       
     e( 26 - 26) =     17.25832  eV     1   -->   ?

 **************************************************************************

 **************************************************************************

                    xk=(   0.45000,   0.45000,   0.45000  )

     Band symmetry, C_3v (3m)   point group:

     e(  1 -  1) =    -69.45805  eV     1   --> A_1  L_1       
     e(  2 -  4) =    -38.16880  eV     3   --> A_1  L_1       
     e(  2 -  4) =    -38.16880  eV     3   --> E    L_3       
     e(  5 -  5) =    -22.42403  eV     1   --> A_1  L_1       
     e(  6 -  6) =     -6.69955  eV     1   --> A_1  L_1       
     e(  7 -  8) =     -6.62482  eV     2   --> E    L_3       
     e(  9 - 10) =     -4.74696  eV     2   --> E    L_3       
     e( 11 - 11) =     -4.69544  eV     1   --> A_1  L_1       
     e( 12 - 12) =      4.20244  eV     1   --> A_1  L_1       
     e( 13 - 14) =      5.30839  eV     2   --> E    L_3       
     e( 15 - 15) =      6.01589  eV     1   --> A_1  L_1       
     e( 16 - 17) =      6.07018  eV     2   --> E    L_3       
     e( 18 - 19) =      9.84699  eV     2   --> E    L_3       
     e( 20 - 20) =      9.89296  eV     1   --> A_2  L_2       
     e( 21 - 21) =     11.52177  eV     1   --> A_1  L_1       
     e( 22 - 23) =     11.53096  eV     2   --> E    L_3       
     e( 24 - 25) =     14.92815  eV     2   --> E    L_3       
     e( 26 - 26) =     17.33558  eV     1   -->   ?

 **************************************************************************

 **************************************************************************

                    xk=(   0.42500,   0.42500,   0.42500  )

     Band symmetry, C_3v (3m)   point group:

     e(  1 -  1) =    -69.45809  eV     1   --> A_1  L_1       
     e(  2 -  4) =    -38.16866  eV     3   --> A_1  L_1       
     e(  2 -  4) =    -38.16866  eV     3   --> E    L_3       
     e(  5 -  5) =    -22.42593  eV     1   --> A_1  L_1       
     e(  6 -  6) =     -6.79222  eV     1   --> A_1  L_1       
     e(  7 -  8) =     -6.63513  eV     2   --> E    L_3       
     e(  9 - 10) =     -4.71764  eV     2   --> E    L_3       
     e( 11 - 11) =     -4.61295  eV     1   --> A_1  L_1       
     e( 12 - 12) =      4.28978  eV     1   --> A_1  L_1       
     e( 13 - 14) =      5.34564  eV     2   --> E    L_3       
     e( 15 - 15) =      5.98468  eV     1   --> A_1  L_1       
     e( 16 - 17) =      6.09933  eV     2   --> E    L_3       
     e( 18 - 19) =      9.75718  eV     2   --> E    L_3       
     e( 20 - 20) =      9.85465  eV     1   --> A_2  L_2       
     e( 21 - 21) =     11.47375  eV     1   --> A_1  L_1       
     e( 22 - 23) =     11.49392  eV     2   --> E    L_3       
     e( 24 - 25) =     14.81064  eV     2   --> E    L_3       
     e( 26 - 26) =     17.45065  eV     1   --> A_1  L_1       

 **************************************************************************

 **************************************************************************

                    xk=(   0.40000,   0.40000,   0.40000  )

     Band symmetry, C_3v (3m)   point group:

     e(  1 -  1) =    -69.45809  eV     1   --> A_1  L_1       
     e(  2 -  4) =    -38.16847  eV     3   --> A_1  L_1       
     e(  2 -  4) =    -38.16847  eV     3   --> E    L_3       
     e(  5 -  5) =    -22.42852  eV     1   --> A_1  L_1       
     e(  6 -  6) =     -6.90454  eV     1   --> A_1  L_1       
     e(  7 -  8) =     -6.64743  eV     2   --> E    L_3       
     e(  9 - 10) =     -4.68011  eV     2   --> E    L_3       
     e( 11 - 11) =     -4.51634  eV     1   --> A_1  L_1       
     e( 12 - 12) =      4.40500  eV     1   --> A_1  L_1       
     e( 13 - 14) =      5.39660  eV     2   --> E    L_3       
     e( 15 - 15) =      5.95654  eV     1   --> A_1  L_1       
     e( 16 - 17) =      6.14166  eV     2   --> E    L_3       
     e( 18 - 19) =      9.64336  eV     2   --> E    L_3       
     e( 20 - 20) =      9.80274  eV     1   --> A_2  L_2       
     e( 21 - 21) =     11.40886  eV     1   --> A_1  L_1       
     e( 22 - 23) =     11.44288  eV     2   --> E    L_3       
     e( 24 - 25) =     14.65659  eV     2   --> E    L_3       
     e( 26 - 26) =     17.59299  eV     1   -->   ?

 **************************************************************************

 **************************************************************************

                    xk=(   0.37500,   0.37500,   0.37500  )

     Band symmetry, C_3v (3m)   point group:

     e(  1 -  1) =    -69.45810  eV     1   --> A_1  L_1       
     e(  2 -  4) =    -38.16824  eV     3   --> A_1  L_1       
     e(  2 -  4) =    -38.16824  eV     3   --> E    L_3       
     e(  5 -  5) =    -22.43178  eV     1   --> A_1  L_1       
     e(  6 -  6) =     -7.02691  eV     1   --> A_1  L_1       
     e(  7 -  8) =     -6.66005  eV     2   --> E    L_3       
     e(  9 - 10) =     -4.63728  eV     2   --> E    L_3       
     e( 11 - 11) =     -4.41676  eV     1   --> A_1  L_1       
     e( 12 - 12) =      4.54022  eV     1   --> A_1  L_1       
     e( 13 - 14) =      5.45982  eV     2   --> E    L_3       
     e( 15 - 15) =      5.94564  eV     1   --> A_1  L_1       
     e( 16 - 17) =      6.19859  eV     2   --> E    L_3       
     e( 18 - 19) =      9.51460  eV     2   --> E    L_3       
     e( 20 - 20) =      9.73903  eV     1   --> A_2  L_2       
     e( 21 - 21) =     11.32799  eV     1   --> A_1  L_1       
     e( 22 - 23) =     11.37873  eV     2   --> E    L_3       
     e( 24 - 25) =     14.47191  eV     2   --> E    L_3       
     e( 26 - 26) =     17.74278  eV     1   -->   ?

 **************************************************************************

 **************************************************************************

                    xk=(   0.35000,   0.35000,   0.35000  )

     Band symmetry, C_3v (3m)   point group:

     e(  1 -  1) =    -69.45812  eV     1   --> A_1  L_1       
     e(  2 -  4) =    -38.16796  eV     3   --> A_1  L_1       
     e(  2 -  4) =    -38.16796  eV     3   --> E    L_3       
     e(  5 -  5) =    -22.43565  eV     1   --> A_1  L_1       
     e(  6 -  6) =     -7.15166  eV     1   --> A_1  L_1       
     e(  7 -  8) =     -6.67139  eV     2   --> E    L_3       
     e(  9 - 10) =     -4.59228  eV     2   --> E    L_3       
     e( 11 - 11) =     -4.32332  eV     1   --> A_1  L_1       
     e( 12 - 12) =      4.68466  eV     1   --> A_1  L_1       
     e( 13 - 14) =      5.53367  eV     2   --> E    L_3       
     e( 15 - 15) =      5.96902  eV     1   --> A_1  L_1       
     e( 16 - 17) =      6.27181  eV     2   --> E    L_3       
     e( 18 - 19) =      9.38029  eV     2   --> E    L_3       
     e( 20 - 20) =      9.66541  eV     1   --> A_2  L_2       
     e( 21 - 21) =     11.23361  eV     1   --> A_1  L_1       
     e( 22 - 23) =     11.30229  eV     2   --> E    L_3       
     e( 24 - 25) =     14.26156  eV     2   --> E    L_3       
     e( 26 - 26) =     17.88252  eV     1   -->   ?

 **************************************************************************

 **************************************************************************

                    xk=(   0.32500,   0.32500,   0.32500  )

     Band symmetry, C_3v (3m)   point group:

     e(  1 -  1) =    -69.45807  eV     1   --> A_1  L_1       
     e(  2 -  4) =    -38.16764  eV     3   --> A_1  L_1       
     e(  2 -  4) =    -38.16764  eV     3   --> E    L_3       
     e(  5 -  5) =    -22.44003  eV     1   --> A_1  L_1       
     e(  6 -  6) =     -7.27316  eV     1   --> A_1  L_1       
     e(  7 -  8) =     -6.67999  eV     2   --> E    L_3       
     e(  9 - 10) =     -4.54817  eV     2   --> E    L_3       
     e( 11 - 11) =     -4.24311  eV     1   --> A_1  L_1       
     e( 12 - 12) =      4.82661  eV     1   --> A_1  L_1       
     e( 13 - 14) =      5.61593  eV     2   --> E    L_3       
     e( 15 - 15) =      6.04389  eV     1   --> A_1  L_1       
     e( 16 - 17) =      6.36321  eV     2   --> E    L_3       
     e( 18 - 19) =      9.24922  eV     2   --> E    L_3       
     e( 20 - 20) =      9.58414  eV     1   --> A_2  L_2       
     e( 21 - 21) =     11.12777  eV     1   --> A_1  L_1       
     e( 22 - 23) =     11.21464  eV     2   --> E    L_3       
     e( 24 - 25) =     14.03021  eV     2   --> E    L_3       
     e( 26 - 26) =     17.99578  eV     1   -->   ?

 **************************************************************************

 **************************************************************************

                    xk=(   0.30000,   0.30000,   0.30000  )

     Band symmetry, C_3v (3m)   point group:

     e(  1 -  1) =    -69.45814  eV     1   --> A_1  L_1       
     e(  2 -  4) =    -38.16730  eV     3   --> A_1  L_1       
     e(  2 -  4) =    -38.16730  eV     3   --> E    L_3       
     e(  5 -  5) =    -22.44488  eV     1   --> A_1  L_1       
     e(  6 -  6) =     -7.38736  eV     1   --> A_1  L_1       
     e(  7 -  8) =     -6.68474  eV     2   --> E    L_3       
     e(  9 - 10) =     -4.50773  eV     2   --> E    L_3       
     e( 11 - 11) =     -4.18138  eV     1   --> A_1  L_1       
     e( 12 - 12) =      4.95795  eV     1   --> A_1  L_1       
     e( 13 - 14) =      5.70407  eV     2   --> E    L_3       
     e( 15 - 15) =      6.18103  eV     1   --> A_1  L_1       
     e( 16 - 17) =      6.47437  eV     2   --> E    L_3       
     e( 18 - 19) =      9.12897  eV     2   --> E    L_3       
     e( 20 - 20) =      9.49755  eV     1   --> A_2  L_2       
     e( 21 - 21) =     11.01229  eV     1   --> A_1  L_1       
     e( 22 - 23) =     11.11681  eV     2   --> E    L_3       
     e( 24 - 25) =     13.78151  eV     2   --> E    L_3       
     e( 26 - 26) =     18.07202  eV     1   -->   ?

 **************************************************************************

 **************************************************************************

                    xk=(   0.27500,   0.27500,   0.27500  )

     Band symmetry, C_3v (3m)   point group:

     e(  1 -  1) =    -69.45814  eV     1   --> A_1  L_1       
     e(  2 -  4) =    -38.16693  eV     3   --> A_1  L_1       
     e(  2 -  4) =    -38.16693  eV     3   --> E    L_3       
     e(  5 -  5) =    -22.45007  eV     1   --> A_1  L_1       
     e(  6 -  6) =     -7.49125  eV     1   --> A_1  L_1       
     e(  7 -  8) =     -6.68485  eV     2   --> E    L_3       
     e(  9 - 10) =     -4.47328  eV     2   --> E    L_3       
     e( 11 - 11) =     -4.14129  eV     1   --> A_1  L_1       
     e( 12 - 12) =      5.07971  eV     1   --> A_1  L_1       
     e( 13 - 14) =      5.79534  eV     2   --> E    L_3       
     e( 15 - 15) =      6.38089  eV     1   --> A_1  L_1       
     e( 16 - 17) =      6.60672  eV     2   --> E    L_3       
     e( 18 - 19) =      9.02640  eV     2   --> E    L_3       
     e( 20 - 20) =      9.40795  eV     1   --> A_2  L_2       
     e( 21 - 21) =     10.88967  eV     1   --> A_1  L_1       
     e( 22 - 23) =     11.00997  eV     2   --> E    L_3       
     e( 24 - 25) =     13.51928  eV     2   --> E    L_3       
     e( 26 - 26) =     17.95376  eV     1   -->   ?

 **************************************************************************

 **************************************************************************

                    xk=(   0.25000,   0.25000,   0.25000  )

     Band symmetry, C_3v (3m)   point group:

     e(  1 -  1) =    -69.45815  eV     1   --> A_1  L_1       
     e(  2 -  4) =    -38.16656  eV     3   --> A_1  L_1       
     e(  2 -  4) =    -38.16656  eV     3   --> E    L_3       
     e(  5 -  5) =    -22.45549  eV     1   --> A_1  L_1       
     e(  6 -  6) =     -7.58299  eV     1   --> A_1  L_1       
     e(  7 -  8) =     -6.67996  eV     2   --> E    L_3       
     e(  9 - 10) =     -4.44650  eV     2   --> E    L_3       
     e( 11 - 11) =     -4.12411  eV     1   --> A_1  L_1       
     e( 12 - 12) =      5.19980  eV     1   --> A_1  L_1       
     e( 13 - 14) =      5.88682  eV     2   --> E    L_3       
     e( 15 - 15) =      6.63301  eV     1   --> A_1  L_1       
     e( 16 - 17) =      6.76097  eV     2   --> E    L_3       
     e( 18 - 19) =      8.94699  eV     2   --> E    L_3       
     e( 20 - 20) =      9.31766  eV     1   --> A_2  L_2       
     e( 21 - 21) =     10.76223  eV     1   --> A_1  L_1       
     e( 22 - 23) =     10.89510  eV     2   --> E    L_3       
     e( 24 - 25) =     13.24704  eV     2   --> E    L_3       
     e( 26 - 26) =     17.74811  eV     1   -->   ?

 **************************************************************************

 **************************************************************************

                    xk=(   0.22500,   0.22500,   0.22500  )

     Band symmetry, C_3v (3m)   point group:

     e(  1 -  1) =    -69.45822  eV     1   --> A_1  L_1       
     e(  2 -  4) =    -38.16619  eV     3   --> A_1  L_1       
     e(  2 -  4) =    -38.16619  eV     3   --> E    L_3       
     e(  5 -  5) =    -22.46106  eV     1   --> A_1  L_1       
     e(  6 -  6) =     -7.66152  eV     1   --> A_1  L_1       
     e(  7 -  8) =     -6.67009  eV     2   --> E    L_3       
     e(  9 - 10) =     -4.42844  eV     2   --> E    L_3       
     e( 11 - 11) =     -4.12931  eV     1   --> A_1  L_1       
     e( 12 - 12) =      5.32660  eV     1   --> A_1  L_1       
     e( 13 - 14) =      5.97545  eV     2   --> E    L_3       
     e( 15 - 15) =      6.92342  eV     1   --> A_1  L_1       
     e( 16 - 17) =      6.93693  eV     2   --> E    L_3       
     e( 18 - 19) =      8.89493  eV     2   --> E    L_3       
     e( 20 - 20) =      9.22888  eV     1   --> A_2  L_2       
     e( 21 - 21) =     10.63192  eV     1   --> A_1  L_1       
     e( 22 - 23) =     10.77294  eV     2   --> E    L_3       
     e( 24 - 25) =     12.96784  eV     2   --> E    L_3       
     e( 26 - 26) =     17.49833  eV     1   -->   ?

 **************************************************************************

 **************************************************************************

                    xk=(   0.20000,   0.20000,   0.20000  )

     Band symmetry, C_3v (3m)   point group:

     e(  1 -  1) =    -69.45825  eV     1   --> A_1  L_1       
     e(  2 -  4) =    -38.16582  eV     3   --> A_1  L_1       
     e(  2 -  4) =    -38.16582  eV     3   --> E    L_3       
     e(  5 -  5) =    -22.46659  eV     1   --> A_1  L_1       
     e(  6 -  6) =     -7.72646  eV     1   --> A_1  L_1       
     e(  7 -  8) =     -6.65558  eV     2   --> E    L_3       
     e(  9 - 10) =     -4.41929  eV     2   --> E    L_3       
     e( 11 - 11) =     -4.15442  eV     1   --> A_1  L_1       
     e( 12 - 12) =      5.46468  eV     1   --> A_1  L_1       
     e( 13 - 14) =      6.05854  eV     2   --> E    L_3       
     e( 15 - 16) =      7.13375  eV     2   --> E    L_3       
     e( 17 - 17) =      7.23895  eV     1   --> A_1  L_1       
     e( 18 - 19) =      8.87344  eV     2   --> E    L_3       
     e( 20 - 20) =      9.14373  eV     1   --> A_2  L_2       
     e( 21 - 21) =     10.50148  eV     1   --> A_1  L_1       
     e( 22 - 23) =     10.64436  eV     2   --> E    L_3       
     e( 24 - 25) =     12.68534  eV     2   --> E    L_3       
     e( 26 - 26) =     17.22621  eV     1   -->   ?

 **************************************************************************

 **************************************************************************

                    xk=(   0.17500,   0.17500,   0.17500  )

     Band symmetry, C_3v (3m)   point group:

     e(  1 -  1) =    -69.45828  eV     1   --> A_1  L_1       
     e(  2 -  4) =    -38.16547  eV     3   --> A_1  L_1       
     e(  2 -  4) =    -38.16547  eV     3   --> E    L_3       
     e(  5 -  5) =    -22.47195  eV     1   --> A_1  L_1       
     e(  6 -  6) =     -7.77812  eV     1   --> A_1  L_1       
     e(  7 -  8) =     -6.63727  eV     2   --> E    L_3       
     e(  9 - 10) =     -4.41851  eV     2   --> E    L_3       
     e( 11 - 11) =     -4.19558  eV     1   --> A_1  L_1       
     e( 12 - 12) =      5.61347  eV     1   --> A_1  L_1       
     e( 13 - 14) =      6.13367  eV     2   --> E    L_3       
     e( 15 - 16) =      7.34923  eV     2   --> E    L_3       
     e( 17 - 17) =      7.56866  eV     1   --> A_1  L_1       
     e( 18 - 19) =      8.88382  eV     2   --> E    L_3       
     e( 20 - 20) =      9.06402  eV     1   --> A_2  L_2       
     e( 21 - 21) =     10.37281  eV     1   --> A_1  L_1       
     e( 22 - 23) =     10.50950  eV     2   --> E    L_3       
     e( 24 - 25) =     12.40291  eV     2   --> E    L_3       
     e( 26 - 26) =     16.94609  eV     1   -->   ?

 **************************************************************************

 **************************************************************************

                    xk=(   0.15000,   0.15000,   0.15000  )

     Band symmetry, C_3v (3m)   point group:

     e(  1 -  1) =    -69.45832  eV     1   --> A_1  L_1       
     e(  2 -  4) =    -38.16514  eV     3   --> A_1  L_1       
     e(  2 -  4) =    -38.16514  eV     3   --> E    L_3       
     e(  5 -  5) =    -22.47701  eV     1   --> A_1  L_1       
     e(  6 -  6) =     -7.81743  eV     1   --> A_1  L_1       
     e(  7 -  8) =     -6.61625  eV     2   --> E    L_3       
     e(  9 - 10) =     -4.42487  eV     2   --> E    L_3       
     e( 11 - 11) =     -4.24785  eV     1   --> A_1  L_1       
     e( 12 - 12) =      5.76839  eV     1   --> A_1  L_1       
     e( 13 - 14) =      6.19892  eV     2   --> E    L_3       
     e( 15 - 16) =      7.58018  eV     2   --> E    L_3       
     e( 17 - 17) =      7.90191  eV     1   --> A_1  L_1       
     e( 18 - 19) =      8.92556  eV     2   --> E    L_3       
     e( 20 - 20) =      8.99155  eV     1   --> A_2  L_2       
     e( 21 - 21) =     10.24742  eV     1   --> A_1  L_1       
     e( 22 - 23) =     10.36828  eV     2   --> E    L_3       
     e( 24 - 25) =     12.12446  eV     2   --> E    L_3       
     e( 26 - 26) =     16.66929  eV     1   -->   ?

 **************************************************************************

 **************************************************************************

                    xk=(   0.12500,   0.12500,   0.12500  )

     Band symmetry, C_3v (3m)   point group:

     e(  1 -  1) =    -69.45833  eV     1   --> A_1  L_1       
     e(  2 -  4) =    -38.16486  eV     3   --> A_1  L_1       
     e(  2 -  4) =    -38.16486  eV     3   --> E    L_3       
     e(  5 -  5) =    -22.48160  eV     1   --> A_1  L_1       
     e(  6 -  6) =     -7.84577  eV     1   --> A_1  L_1       
     e(  7 -  8) =     -6.59400  eV     2   --> E    L_3       
     e(  9 - 10) =     -4.43645  eV     2   --> E    L_3       
     e( 11 - 11) =     -4.30557  eV     1   --> A_1  L_1       
     e( 12 - 12) =      5.92229  eV     1   --> A_1  L_1       
     e( 13 - 14) =      6.25333  eV     2   --> E    L_3       
     e( 15 - 16) =      7.82197  eV     2   --> E    L_3       
     e( 17 - 17) =      8.22933  eV     1   --> A_1  L_1       
     e( 18 - 18) =      8.92776  eV     1   --> A_2  L_2       
     e( 19 - 20) =      8.99587  eV     2   --> E    L_3       
     e( 21 - 21) =     10.12628  eV     1   --> A_1  L_1       
     e( 22 - 23) =     10.22053  eV     2   --> E    L_3       
     e( 24 - 25) =     11.85476  eV     2   --> E    L_3       
     e( 26 - 26) =     16.40613  eV     1   -->   ?

 **************************************************************************

 **************************************************************************

                    xk=(   0.10000,   0.10000,   0.10000  )

     Band symmetry, C_3v (3m)   point group:

     e(  1 -  1) =    -69.45834  eV     1   --> A_1  L_1       
     e(  2 -  4) =    -38.16461  eV     3   --> A_1  L_1       
     e(  2 -  4) =    -38.16461  eV     3   --> E    L_3       
     e(  5 -  5) =    -22.48557  eV     1   --> A_1  L_1       
     e(  6 -  6) =     -7.86500  eV     1   --> A_1  L_1       
     e(  7 -  8) =     -6.57220  eV     2   --> E    L_3       
     e(  9 - 10) =     -4.45092  eV     2   --> E    L_3       
     e( 11 - 11) =     -4.36296  eV     1   --> A_1  L_1       
     e( 12 - 12) =      6.06620  eV     1   --> A_1  L_1       
     e( 13 - 14) =      6.29657  eV     2   --> E    L_3       
     e( 15 - 16) =      8.06800  eV     2   --> E    L_3       
     e( 17 - 17) =      8.54141  eV     1   --> A_1  L_1       
     e( 18 - 18) =      8.87390  eV     1   --> A_2  L_2       
     e( 19 - 20) =      9.08919  eV     2   --> E    L_3       
     e( 21 - 21) =     10.00871  eV     1   --> A_1  L_1       
     e( 22 - 23) =     10.06630  eV     2   --> E    L_3       
     e( 24 - 25) =     11.60023  eV     2   --> E    L_3       
     e( 26 - 26) =     16.16806  eV     1   -->   ?

 **************************************************************************

 **************************************************************************

                    xk=(   0.07500,   0.07500,   0.07500  )

     Band symmetry, C_3v (3m)   point group:

     e(  1 -  1) =    -69.45838  eV     1   --> A_1  L_1       
     e(  2 -  4) =    -38.16440  eV     3   --> A_1  L_1       
     e(  2 -  4) =    -38.16440  eV     3   --> E    L_3       
     e(  5 -  5) =    -22.48883  eV     1   --> A_1  L_1       
     e(  6 -  6) =     -7.87708  eV     1   --> A_1  L_1       
     e(  7 -  8) =     -6.55267  eV     2   --> E    L_3       
     e(  9 - 10) =     -4.46578  eV     2   --> E    L_3       
     e( 11 - 11) =     -4.41445  eV     1   --> A_1  L_1       
     e( 12 - 12) =      6.19074  eV     1   --> A_1  L_1       
     e( 13 - 14) =      6.32908  eV     2   --> E    L_3       
     e( 15 - 16) =      8.30903  eV     2   --> E    L_3       
     e( 17 - 17) =      8.82899  eV     1   --> A_1  L_1       
     e( 18 - 18) =      8.83092  eV     1   --> A_2  L_2       
     e( 19 - 20) =      9.19633  eV     2   --> E    L_3       
     e( 21 - 21) =      9.89219  eV     1   --> A_1  L_1       
     e( 22 - 23) =      9.90667  eV     2   --> E    L_3       
     e( 24 - 25) =     11.37010  eV     2   --> E    L_3       
     e( 26 - 26) =     15.96636  eV     1   -->   ?

 **************************************************************************

 **************************************************************************

                    xk=(   0.05000,   0.05000,   0.05000  )

     Band symmetry, C_3v (3m)   point group:

     e(  1 -  1) =    -69.45839  eV     1   --> A_1  L_1       
     e(  2 -  4) =    -38.16425  eV     3   --> A_1  L_1       
     e(  2 -  4) =    -38.16425  eV     3   --> E    L_3       
     e(  5 -  5) =    -22.49124  eV     1   --> A_1  L_1       
     e(  6 -  6) =     -7.88396  eV     1   --> A_1  L_1       
     e(  7 -  8) =     -6.53716  eV     2   --> E    L_3       
     e(  9 - 10) =     -4.47855  eV     2   --> E    L_3       
     e( 11 - 11) =     -4.45515  eV     1   --> A_1  L_1       
     e( 12 - 12) =      6.28712  eV     1   --> A_1  L_1       
     e( 13 - 14) =      6.35155  eV     2   --> E    L_3       
     e( 15 - 16) =      8.53022  eV     2   --> E    L_3       
     e( 17 - 17) =      8.79966  eV     1   --> A_2  L_2       
     e( 18 - 18) =      9.08441  eV     1   --> A_1  L_1       
     e( 19 - 20) =      9.30437  eV     2   --> E    L_3       
     e( 21 - 22) =      9.74696  eV     2   --> E    L_3       
     e( 23 - 23) =      9.77213  eV     1   --> A_1  L_1       
     e( 24 - 25) =     11.17886  eV     2   --> E    L_3       
     e( 26 - 26) =     15.81240  eV     1   -->   ?

 **************************************************************************

 **************************************************************************

                    xk=(   0.02500,   0.02500,   0.02500  )

     Band symmetry, C_3v (3m)   point group:

     e(  1 -  1) =    -69.45840  eV     1   --> A_1  L_1       
     e(  2 -  4) =    -38.16416  eV     3   --> A_1  L_1       
     e(  2 -  4) =    -38.16416  eV     3   --> E    L_3       
     e(  5 -  5) =    -22.49272  eV     1   --> A_1  L_1       
     e(  6 -  6) =     -7.88734  eV     1   --> A_1  L_1       
     e(  7 -  8) =     -6.52717  eV     2   --> E    L_3       
     e(  9 - 10) =     -4.48715  eV     2   --> E    L_3       
     e( 11 - 11) =     -4.48119  eV     1   --> A_1  L_1       
     e( 12 - 12) =      6.34811  eV     1   --> A_1  L_1       
     e( 13 - 14) =      6.36465  eV     2   --> E    L_3       
     e( 15 - 16) =      8.70328  eV     2   --> E    L_3       
     e( 17 - 17) =      8.78061  eV     1   --> A_2  L_2       
     e( 18 - 18) =      9.30287  eV     1   --> A_1  L_1       
     e( 19 - 20) =      9.39883  eV     2   --> E    L_3       
     e( 21 - 22) =      9.60122  eV     2   --> E    L_3       
     e( 23 - 23) =      9.64100  eV     1   --> A_1  L_1       
     e( 24 - 25) =     11.04760  eV     2   --> E    L_3       
     e( 26 - 26) =     15.71566  eV     1   -->   ?

 **************************************************************************

 **************************************************************************

                    xk=(   0.00000,   0.00000,   0.00000  )

     point group O_h (m-3m) 
     there are 10 classes
     the character table:

       E     8C3   3C2   6C4   6C2'  i     8S6   3s_h  6S4   6s_d 
A_1g   1.00  1.00  1.00  1.00  1.00  1.00  1.00  1.00  1.00  1.00
A_2g   1.00  1.00  1.00 -1.00 -1.00  1.00  1.00  1.00 -1.00 -1.00
E_g    2.00 -1.00  2.00  0.00  0.00  2.00 -1.00  2.00  0.00  0.00
T_1g   3.00  0.00 -1.00  1.00 -1.00  3.00  0.00 -1.00  1.00 -1.00
T_2g   3.00  0.00 -1.00 -1.00  1.00  3.00  0.00 -1.00 -1.00  1.00
A_1u   1.00  1.00  1.00  1.00  1.00 -1.00 -1.00 -1.00 -1.00 -1.00
A_2u   1.00  1.00  1.00 -1.00 -1.00 -1.00 -1.00 -1.00  1.00  1.00
E_u    2.00 -1.00  2.00  0.00  0.00 -2.00  1.00 -2.00  0.00  0.00
T_1u   3.00  0.00 -1.00  1.00 -1.00 -3.00  0.00  1.00 -1.00  1.00
T_2u   3.00  0.00 -1.00 -1.00  1.00 -3.00  0.00  1.00  1.00 -1.00

     the symmetry operations in each class and the name of the first element:

     E        1
                                                                 
     8C3     17   19   20   18   24   21   22   23
                                                                 
     3C2      2    4    3
                                                                 
     6C4      7    8   15   16   12   11
                                                                 
     6C2'     5    6   14   13   10    9
                                                                 
     i       25
                                                                 
     8S6     41   43   44   42   48   45   46   47
                                                                 
     3s_h    26   28   27
                                                                 
     6S4     31   32   39   40   36   35
                                                                 
     6s_d    29   30   38   37   34   33
                                                                 

     Band symmetry, O_h (m-3m)  point group:

     e(  1 -  1) =    -69.45847  eV     1   --> A_1g G_1   G_1+
     e(  2 -  4) =    -38.16413  eV     3   --> T_1u G_15  G_4-
     e(  5 -  5) =    -22.49325  eV     1   --> A_1g G_1   G_1+
     e(  6 -  6) =     -7.88834  eV     1   --> A_1g G_1   G_1+
     e(  7 -  8) =     -6.52375  eV     2   --> E_g  G_12  G_3+
     e(  9 - 11) =     -4.49020  eV     3   --> T_1u G_15  G_4-
     e( 12 - 14) =      6.36888  eV     3   --> T_1u G_15  G_4-
     e( 15 - 17) =      8.77414  eV     3   --> T_2u G_25  G_5-
     e( 18 - 20) =      9.46717  eV     3   --> T_1u G_15  G_4-
     e( 21 - 23) =      9.50670  eV     3   --> T_2g G_25' G_5+
     e( 24 - 25) =     10.99987  eV     2   --> E_g  G_12  G_3+
     e( 26 - 26) =     15.68268  eV     1   -->   ?

 **************************************************************************

 **************************************************************************

                    xk=(   0.00000,   0.02500,   0.00000  )

     point group C_4v (4mm) 
     there are  5 classes
     the character table:

       E     2C4   C2    2s_v  2s_d 
A_1    1.00  1.00  1.00  1.00  1.00
A_2    1.00  1.00  1.00 -1.00 -1.00
B_1    1.00 -1.00  1.00  1.00 -1.00
B_2    1.00 -1.00  1.00 -1.00  1.00
E      2.00  0.00 -2.00  0.00  0.00

     the symmetry operations in each class and the name of the first element:

     E        1
                                                                 
     2C4      3    4
                                                                 
     C2       2
                                                                 
     2s_v     5    6
                                                                 
     2s_d     7    8
                                                                 

     Band symmetry, C_4v (4mm)  point group:

     e(  1 -  1) =    -69.45841  eV     1   --> A_1  G_1 D_1   
     e(  2 -  4) =    -38.16416  eV     3   --> A_1  G_1 D_1   
     e(  2 -  4) =    -38.16416  eV     3   --> E    G_5 D_5   
     e(  5 -  5) =    -22.49306  eV     1   --> A_1  G_1 D_1   
     e(  6 -  6) =     -7.88801  eV     1   --> A_1  G_1 D_1   
     e(  7 -  7) =     -6.52628  eV     1   --> A_1  G_1 D_1   
     e(  8 -  8) =     -6.52347  eV     1   --> B_1  G_3 D_2   
     e(  9 - 10) =     -4.48980  eV     2   --> E    G_5 D_5   
     e( 11 - 11) =     -4.48587  eV     1   --> A_1  G_1 D_1   
     e( 12 - 12) =      6.35910  eV     1   --> A_1  G_1 D_1   
     e( 13 - 14) =      6.36898  eV     2   --> E    G_5 D_5   
     e( 15 - 16) =      8.75317  eV     2   --> E    G_5 D_5   
     e( 17 - 17) =      8.76858  eV     1   --> B_1  G_3 D_2   
     e( 18 - 19) =      9.41025  eV     2   --> E    G_5 D_5   
     e( 20 - 20) =      9.43689  eV     1   --> A_1  G_1 D_1   
     e( 21 - 21) =      9.50722  eV     1   --> B_2  G_4 D_2'  
     e( 22 - 23) =      9.58367  eV     2   --> E    G_5 D_5   
     e( 24 - 24) =     10.99999  eV     1   --> B_1  G_3 D_2   
     e( 25 - 25) =     11.03173  eV     1   --> A_1  G_1 D_1   
     e( 26 - 26) =     15.69379  eV     1   -->   ?

 **************************************************************************

 **************************************************************************

                    xk=(   0.00000,   0.05000,   0.00000  )

     Band symmetry, C_4v (4mm)  point group:

     e(  1 -  1) =    -69.45838  eV     1   --> A_1  G_1 D_1   
     e(  2 -  2) =    -38.16426  eV     1   --> A_1  G_1 D_1   
     e(  3 -  4) =    -38.16412  eV     2   --> E    G_5 D_5   
     e(  5 -  5) =    -22.49255  eV     1   --> A_1  G_1 D_1   
     e(  6 -  6) =     -7.88712  eV     1   --> A_1  G_1 D_1   
     e(  7 -  7) =     -6.53370  eV     1   --> A_1  G_1 D_1   
     e(  8 -  8) =     -6.52273  eV     1   --> B_1  G_3 D_2   
     e(  9 - 10) =     -4.48866  eV     2   --> E    G_5 D_5   
     e( 11 - 11) =     -4.47322  eV     1   --> A_1  G_1 D_1   
     e( 12 - 12) =      6.32977  eV     1   --> A_1  G_1 D_1   
     e( 13 - 14) =      6.36913  eV     2   --> E    G_5 D_5   
     e( 15 - 16) =      8.69453  eV     2   --> E    G_5 D_5   
     e( 17 - 17) =      8.75160  eV     1   --> B_1  G_3 D_2   
     e( 18 - 18) =      9.35320  eV     1   --> A_1  G_1 D_1   
     e( 19 - 20) =      9.35621  eV     2   --> E    G_5 D_5   
     e( 21 - 21) =      9.50827  eV     1   --> B_2  G_4 D_2'  
     e( 22 - 23) =      9.69279  eV     2   --> E    G_5 D_5   
     e( 24 - 24) =     11.00037  eV     1   --> B_1  G_3 D_2   
     e( 25 - 25) =     11.11952  eV     1   --> A_1  G_1 D_1   
     e( 26 - 26) =     15.72521  eV     1   -->   ?

 **************************************************************************

 **************************************************************************

                    xk=(   0.00000,   0.07500,   0.00000  )

     Band symmetry, C_4v (4mm)  point group:

     e(  1 -  1) =    -69.45839  eV     1   --> A_1  G_1 D_1   
     e(  2 -  2) =    -38.16443  eV     1   --> A_1  G_1 D_1   
     e(  3 -  4) =    -38.16411  eV     2   --> E    G_5 D_5   
     e(  5 -  5) =    -22.49175  eV     1   --> A_1  G_1 D_1   
     e(  6 -  6) =     -7.88584  eV     1   --> A_1  G_1 D_1   
     e(  7 -  7) =     -6.54538  eV     1   --> A_1  G_1 D_1   
     e(  8 -  8) =     -6.52152  eV     1   --> B_1  G_3 D_2   
     e(  9 - 10) =     -4.48682  eV     2   --> E    G_5 D_5   
     e( 11 - 11) =     -4.45282  eV     1   --> A_1  G_1 D_1   
     e( 12 - 12) =      6.28203  eV     1   --> A_1  G_1 D_1   
     e( 13 - 14) =      6.36931  eV     2   --> E    G_5 D_5   
     e( 15 - 16) =      8.60836  eV     2   --> E    G_5 D_5   
     e( 17 - 17) =      8.72396  eV     1   --> B_1  G_3 D_2   
     e( 18 - 18) =      9.23190  eV     1   --> A_1  G_1 D_1   
     e( 19 - 20) =      9.31584  eV     2   --> E    G_5 D_5   
     e( 21 - 21) =      9.50986  eV     1   --> B_2  G_4 D_2'  
     e( 22 - 23) =      9.81317  eV     2   --> E    G_5 D_5   
     e( 24 - 24) =     11.00069  eV     1   --> B_1  G_3 D_2   
     e( 25 - 25) =     11.24722  eV     1   --> A_1  G_1 D_1   
     e( 26 - 26) =     15.77856  eV     1   -->   ?

 **************************************************************************

 **************************************************************************

                    xk=(   0.00000,   0.10000,   0.00000  )

     Band symmetry, C_4v (4mm)  point group:

     e(  1 -  1) =    -69.45839  eV     1   --> A_1  G_1 D_1   
     e(  2 -  2) =    -38.16466  eV     1   --> A_1  G_1 D_1   
     e(  3 -  4) =    -38.16410  eV     2   --> E    G_5 D_5   
     e(  5 -  5) =    -22.49064  eV     1   --> A_1  G_1 D_1   
     e(  6 -  6) =     -7.88441  eV     1   --> A_1  G_1 D_1   
     e(  7 -  7) =     -6.56033  eV     1   --> A_1  G_1 D_1   
     e(  8 -  8) =     -6.51988  eV     1   --> B_1  G_3 D_2   
     e(  9 - 10) =     -4.48432  eV     2   --> E    G_5 D_5   
     e( 11 - 11) =     -4.42557  eV     1   --> A_1  G_1 D_1   
     e( 12 - 12) =      6.21756  eV     1   --> A_1  G_1 D_1   
     e( 13 - 14) =      6.36964  eV     2   --> E    G_5 D_5   
     e( 15 - 16) =      8.50535  eV     2   --> E    G_5 D_5   
     e( 17 - 17) =      8.68682  eV     1   --> B_1  G_3 D_2   
     e( 18 - 18) =      9.08824  eV     1   --> A_1  G_1 D_1   
     e( 19 - 20) =      9.28407  eV     2   --> E    G_5 D_5   
     e( 21 - 21) =      9.51204  eV     1   --> B_2  G_4 D_2'  
     e( 22 - 23) =      9.93976  eV     2   --> E    G_5 D_5   
     e( 24 - 24) =     11.00109  eV     1   --> B_1  G_3 D_2   
     e( 25 - 25) =     11.39949  eV     1   --> A_1  G_1 D_1   
     e( 26 - 26) =     15.85050  eV     1   -->   ?

 **************************************************************************

 **************************************************************************

                    xk=(   0.00000,   0.12500,   0.00000  )

     Band symmetry, C_4v (4mm)  point group:

     e(  1 -  1) =    -69.45838  eV     1   --> A_1  G_1 D_1   
     e(  2 -  2) =    -38.16494  eV     1   --> A_1  G_1 D_1   
     e(  3 -  4) =    -38.16409  eV     2   --> E    G_5 D_5   
     e(  5 -  5) =    -22.48926  eV     1   --> A_1  G_1 D_1   
     e(  6 -  6) =     -7.88319  eV     1   --> A_1  G_1 D_1   
     e(  7 -  7) =     -6.57738  eV     1   --> A_1  G_1 D_1   
     e(  8 -  8) =     -6.51781  eV     1   --> B_1  G_3 D_2   
     e(  9 - 10) =     -4.48119  eV     2   --> E    G_5 D_5   
     e( 11 - 11) =     -4.39263  eV     1   --> A_1  G_1 D_1   
     e( 12 - 12) =      6.13853  eV     1   --> A_1  G_1 D_1   
     e( 13 - 14) =      6.37018  eV     2   --> E    G_5 D_5   
     e( 15 - 16) =      8.39347  eV     2   --> E    G_5 D_5   
     e( 17 - 17) =      8.64153  eV     1   --> B_1  G_3 D_2   
     e( 18 - 18) =      8.93310  eV     1   --> A_1  G_1 D_1   
     e( 19 - 20) =      9.25653  eV     2   --> E    G_5 D_5   
     e( 21 - 21) =      9.51476  eV     1   --> B_2  G_4 D_2'  
     e( 22 - 23) =     10.06902  eV     2   --> E    G_5 D_5   
     e( 24 - 24) =     11.00159  eV     1   --> B_1  G_3 D_2   
     e( 25 - 25) =     11.56468  eV     1   --> A_1  G_1 D_1   
     e( 26 - 26) =     15.94258  eV     1   -->   ?

 **************************************************************************

 **************************************************************************

                    xk=(   0.00000,   0.15000,   0.00000  )

     Band symmetry, C_4v (4mm)  point group:

     e(  1 -  1) =    -69.45838  eV     1   --> A_1  G_1 D_1   
     e(  2 -  2) =    -38.16527  eV     1   --> A_1  G_1 D_1   
     e(  3 -  4) =    -38.16407  eV     2   --> E    G_5 D_5   
     e(  5 -  5) =    -22.48764  eV     1   --> A_1  G_1 D_1   
     e(  6 -  6) =     -7.88256  eV     1   --> A_1  G_1 D_1   
     e(  7 -  7) =     -6.59526  eV     1   --> A_1  G_1 D_1   
     e(  8 -  8) =     -6.51539  eV     1   --> B_1  G_3 D_2   
     e(  9 - 10) =     -4.47752  eV     2   --> E    G_5 D_5   
     e( 11 - 11) =     -4.35530  eV     1   --> A_1  G_1 D_1   
     e( 12 - 12) =      6.04750  eV     1   --> A_1  G_1 D_1   
     e( 13 - 14) =      6.37101  eV     2   --> E    G_5 D_5   
     e( 15 - 16) =      8.27792  eV     2   --> E    G_5 D_5   
     e( 17 - 17) =      8.58960  eV     1   --> B_1  G_3 D_2   
     e( 18 - 18) =      8.77388  eV     1   --> A_1  G_1 D_1   
     e( 19 - 20) =      9.23093  eV     2   --> E    G_5 D_5   
     e( 21 - 21) =      9.51795  eV     1   --> B_2  G_4 D_2'  
     e( 22 - 23) =     10.19837  eV     2   --> E    G_5 D_5   
     e( 24 - 24) =     11.00215  eV     1   --> B_1  G_3 D_2   
     e( 25 - 25) =     11.73498  eV     1   --> A_1  G_1 D_1   
     e( 26 - 26) =     16.05097  eV     1   -->   ?

 **************************************************************************

 **************************************************************************

                    xk=(   0.00000,   0.17500,   0.00000  )

     Band symmetry, C_4v (4mm)  point group:

     e(  1 -  1) =    -69.45836  eV     1   --> A_1  G_1 D_1   
     e(  2 -  2) =    -38.16563  eV     1   --> A_1  G_1 D_1   
     e(  3 -  4) =    -38.16405  eV     2   --> E    G_5 D_5   
     e(  5 -  5) =    -22.48582  eV     1   --> A_1  G_1 D_1   
     e(  6 -  6) =     -7.88286  eV     1   --> A_1  G_1 D_1   
     e(  7 -  7) =     -6.61273  eV     1   --> A_1  G_1 D_1   
     e(  8 -  8) =     -6.51267  eV     1   --> B_1  G_3 D_2   
     e(  9 - 10) =     -4.47339  eV     2   --> E    G_5 D_5   
     e( 11 - 11) =     -4.31487  eV     1   --> A_1  G_1 D_1   
     e( 12 - 12) =      5.94729  eV     1   --> A_1  G_1 D_1   
     e( 13 - 14) =      6.37223  eV     2   --> E    G_5 D_5   
     e( 15 - 16) =      8.16210  eV     2   --> E    G_5 D_5   
     e( 17 - 17) =      8.53271  eV     1   --> B_1  G_3 D_2   
     e( 18 - 18) =      8.61555  eV     1   --> A_1  G_1 D_1   
     e( 19 - 20) =      9.20610  eV     2   --> E    G_5 D_5   
     e( 21 - 21) =      9.52152  eV     1   --> B_2  G_4 D_2'  
     e( 22 - 23) =     10.32594  eV     2   --> E    G_5 D_5   
     e( 24 - 24) =     11.00276  eV     1   --> B_1  G_3 D_2   
     e( 25 - 25) =     11.90499  eV     1   --> A_1  G_1 D_1   
     e( 26 - 26) =     16.17437  eV     1   -->   ?

 **************************************************************************

 **************************************************************************

                    xk=(   0.00000,   0.20000,   0.00000  )

     Band symmetry, C_4v (4mm)  point group:

     e(  1 -  1) =    -69.45834  eV     1   --> A_1  G_1 D_1   
     e(  2 -  2) =    -38.16603  eV     1   --> A_1  G_1 D_1   
     e(  3 -  4) =    -38.16402  eV     2   --> E    G_5 D_5   
     e(  5 -  5) =    -22.48385  eV     1   --> A_1  G_1 D_1   
     e(  6 -  6) =     -7.88445  eV     1   --> A_1  G_1 D_1   
     e(  7 -  7) =     -6.62872  eV     1   --> A_1  G_1 D_1   
     e(  8 -  8) =     -6.50971  eV     1   --> B_1  G_3 D_2   
     e(  9 - 10) =     -4.46892  eV     2   --> E    G_5 D_5   
     e( 11 - 11) =     -4.27265  eV     1   --> A_1  G_1 D_1   
     e( 12 - 12) =      5.84085  eV     1   --> A_1  G_1 D_1   
     e( 13 - 14) =      6.37392  eV     2   --> E    G_5 D_5   
     e( 15 - 16) =      8.04835  eV     2   --> E    G_5 D_5   
     e( 17 - 17) =      8.46113  eV     1   --> A_1  G_1 D_1   
     e( 18 - 18) =      8.47256  eV     1   --> B_1  G_3 D_2   
     e( 19 - 20) =      9.18165  eV     2   --> E    G_5 D_5   
     e( 21 - 21) =      9.52541  eV     1   --> B_2  G_4 D_2'  
     e( 22 - 23) =     10.44997  eV     2   --> E    G_5 D_5   
     e( 24 - 24) =     11.00337  eV     1   --> B_1  G_3 D_2   
     e( 25 - 25) =     12.07104  eV     1   --> A_1  G_1 D_1   
     e( 26 - 26) =     16.31263  eV     1   -->   ?

 **************************************************************************

 **************************************************************************

                    xk=(   0.00000,   0.22500,   0.00000  )

     Band symmetry, C_4v (4mm)  point group:

     e(  1 -  1) =    -69.45830  eV     1   --> A_1  G_1 D_1   
     e(  2 -  2) =    -38.16644  eV     1   --> A_1  G_1 D_1   
     e(  3 -  4) =    -38.16400  eV     2   --> E    G_5 D_5   
     e(  5 -  5) =    -22.48177  eV     1   --> A_1  G_1 D_1   
     e(  6 -  6) =     -7.88754  eV     1   --> A_1  G_1 D_1   
     e(  7 -  7) =     -6.64235  eV     1   --> A_1  G_1 D_1   
     e(  8 -  8) =     -6.50659  eV     1   --> B_1  G_3 D_2   
     e(  9 - 10) =     -4.46419  eV     2   --> E    G_5 D_5   
     e( 11 - 11) =     -4.22988  eV     1   --> A_1  G_1 D_1   
     e( 12 - 12) =      5.73112  eV     1   --> A_1  G_1 D_1   
     e( 13 - 14) =      6.37619  eV     2   --> E    G_5 D_5   
     e( 15 - 16) =      7.93828  eV     2   --> E    G_5 D_5   
     e( 17 - 17) =      8.31318  eV     1   --> A_1  G_1 D_1   
     e( 18 - 18) =      8.41092  eV     1   --> B_1  G_3 D_2   
     e( 19 - 20) =      9.15754  eV     2   --> E    G_5 D_5   
     e( 21 - 21) =      9.52942  eV     1   --> B_2  G_4 D_2'  
     e( 22 - 23) =     10.56941  eV     2   --> E    G_5 D_5   
     e( 24 - 24) =     11.00404  eV     1   --> B_1  G_3 D_2   
     e( 25 - 25) =     12.22996  eV     1   --> A_1  G_1 D_1   
     e( 26 - 26) =     16.46231  eV     1   -->   ?

 **************************************************************************

 **************************************************************************

                    xk=(   0.00000,   0.25000,   0.00000  )

     Band symmetry, C_4v (4mm)  point group:

     e(  1 -  1) =    -69.45831  eV     1   --> A_1  G_1 D_1   
     e(  2 -  2) =    -38.16687  eV     1   --> A_1  G_1 D_1   
     e(  3 -  4) =    -38.16398  eV     2   --> E    G_5 D_5   
     e(  5 -  5) =    -22.47965  eV     1   --> A_1  G_1 D_1   
     e(  6 -  6) =     -7.89222  eV     1   --> A_1  G_1 D_1   
     e(  7 -  7) =     -6.65308  eV     1   --> A_1  G_1 D_1   
     e(  8 -  8) =     -6.50340  eV     1   --> B_1  G_3 D_2   
     e(  9 - 10) =     -4.45934  eV     2   --> E    G_5 D_5   
     e( 11 - 11) =     -4.18767  eV     1   --> A_1  G_1 D_1   
     e( 12 - 12) =      5.62075  eV     1   --> A_1  G_1 D_1   
     e( 13 - 14) =      6.37906  eV     2   --> E    G_5 D_5   
     e( 15 - 16) =      7.83320  eV     2   --> E    G_5 D_5   
     e( 17 - 17) =      8.17332  eV     1   --> A_1  G_1 D_1   
     e( 18 - 18) =      8.34911  eV     1   --> B_1  G_3 D_2   
     e( 19 - 20) =      9.13402  eV     2   --> E    G_5 D_5   
     e( 21 - 21) =      9.53362  eV     1   --> B_2  G_4 D_2'  
     e( 22 - 23) =     10.68256  eV     2   --> E    G_5 D_5   
     e( 24 - 24) =     11.00461  eV     1   --> B_1  G_3 D_2   
     e( 25 - 25) =     12.37974  eV     1   --> A_1  G_1 D_1   
     e( 26 - 26) =     16.61992  eV     1   -->   ?

 **************************************************************************

 **************************************************************************

                    xk=(   0.00000,   0.27500,   0.00000  )

     Band symmetry, C_4v (4mm)  point group:

     e(  1 -  1) =    -69.45830  eV     1   --> A_1  G_1 D_1   
     e(  2 -  2) =    -38.16730  eV     1   --> A_1  G_1 D_1   
     e(  3 -  4) =    -38.16395  eV     2   --> E    G_5 D_5   
     e(  5 -  5) =    -22.47753  eV     1   --> A_1  G_1 D_1   
     e(  6 -  6) =     -7.89840  eV     1   --> A_1  G_1 D_1   
     e(  7 -  7) =     -6.66065  eV     1   --> A_1  G_1 D_1   
     e(  8 -  8) =     -6.50020  eV     1   --> B_1  G_3 D_2   
     e(  9 - 10) =     -4.45448  eV     2   --> E    G_5 D_5   
     e( 11 - 11) =     -4.14698  eV     1   --> A_1  G_1 D_1   
     e( 12 - 12) =      5.51274  eV     1   --> A_1  G_1 D_1   
     e( 13 - 14) =      6.38264  eV     2   --> E    G_5 D_5   
     e( 15 - 16) =      7.73418  eV     2   --> E    G_5 D_5   
     e( 17 - 17) =      8.04304  eV     1   --> A_1  G_1 D_1   
     e( 18 - 18) =      8.28887  eV     1   --> B_1  G_3 D_2   
     e( 19 - 20) =      9.11139  eV     2   --> E    G_5 D_5   
     e( 21 - 21) =      9.53783  eV     1   --> B_2  G_4 D_2'  
     e( 22 - 23) =     10.78864  eV     2   --> E    G_5 D_5   
     e( 24 - 24) =     11.00517  eV     1   --> B_1  G_3 D_2   
     e( 25 - 25) =     12.51878  eV     1   --> A_1  G_1 D_1   
     e( 26 - 26) =     16.78188  eV     1   -->   ?

 **************************************************************************

 **************************************************************************

                    xk=(   0.00000,   0.30000,   0.00000  )

     Band symmetry, C_4v (4mm)  point group:

     e(  1 -  1) =    -69.45829  eV     1   --> A_1  G_1 D_1   
     e(  2 -  2) =    -38.16772  eV     1   --> A_1  G_1 D_1   
     e(  3 -  4) =    -38.16393  eV     2   --> E    G_5 D_5   
     e(  5 -  5) =    -22.47545  eV     1   --> A_1  G_1 D_1   
     e(  6 -  6) =     -7.90585  eV     1   --> A_1  G_1 D_1   
     e(  7 -  7) =     -6.66513  eV     1   --> A_1  G_1 D_1   
     e(  8 -  8) =     -6.49707  eV     1   --> B_1  G_3 D_2   
     e(  9 - 10) =     -4.44972  eV     2   --> E    G_5 D_5   
     e( 11 - 11) =     -4.10867  eV     1   --> A_1  G_1 D_1   
     e( 12 - 12) =      5.40945  eV     1   --> A_1  G_1 D_1   
     e( 13 - 14) =      6.38689  eV     2   --> E    G_5 D_5   
     e( 15 - 16) =      7.64212  eV     2   --> E    G_5 D_5   
     e( 17 - 17) =      7.92347  eV     1   --> A_1  G_1 D_1   
     e( 18 - 18) =      8.23145  eV     1   --> B_1  G_3 D_2   
     e( 19 - 20) =      9.09004  eV     2   --> E    G_5 D_5   
     e( 21 - 21) =      9.54200  eV     1   --> B_2  G_4 D_2'  
     e( 22 - 23) =     10.88654  eV     2   --> E    G_5 D_5   
     e( 24 - 24) =     11.00569  eV     1   --> B_1  G_3 D_2   
     e( 25 - 25) =     12.64574  eV     1   --> A_1  G_1 D_1   
     e( 26 - 26) =     16.94590  eV     1   -->   ?

 **************************************************************************

 **************************************************************************

                    xk=(   0.00000,   0.32500,   0.00000  )

     Band symmetry, C_4v (4mm)  point group:

     e(  1 -  1) =    -69.45828  eV     1   --> A_1  G_1 D_1   
     e(  2 -  2) =    -38.16811  eV     1   --> A_1  G_1 D_1   
     e(  3 -  4) =    -38.16390  eV     2   --> E    G_5 D_5   
     e(  5 -  5) =    -22.47348  eV     1   --> A_1  G_1 D_1   
     e(  6 -  6) =     -7.91417  eV     1   --> A_1  G_1 D_1   
     e(  7 -  7) =     -6.66683  eV     1   --> A_1  G_1 D_1   
     e(  8 -  8) =     -6.49409  eV     1   --> B_1  G_3 D_2   
     e(  9 - 10) =     -4.44519  eV     2   --> E    G_5 D_5   
     e( 11 - 11) =     -4.07346  eV     1   --> A_1  G_1 D_1   
     e( 12 - 12) =      5.31304  eV     1   --> A_1  G_1 D_1   
     e( 13 - 14) =      6.39179  eV     2   --> E    G_5 D_5   
     e( 15 - 16) =      7.55794  eV     2   --> E    G_5 D_5   
     e( 17 - 17) =      7.81563  eV     1   --> A_1  G_1 D_1   
     e( 18 - 18) =      8.17807  eV     1   --> B_1  G_3 D_2   
     e( 19 - 20) =      9.07025  eV     2   --> E    G_5 D_5   
     e( 21 - 21) =      9.54591  eV     1   --> B_2  G_4 D_2'  
     e( 22 - 23) =     10.97539  eV     2   --> E    G_5 D_5   
     e( 24 - 24) =     11.00619  eV     1   --> B_1  G_3 D_2   
     e( 25 - 25) =     12.75969  eV     1   --> A_1  G_1 D_1   
     e( 26 - 26) =     17.10585  eV     1   -->   ?

 **************************************************************************

 **************************************************************************

                    xk=(   0.00000,   0.35000,   0.00000  )

     Band symmetry, C_4v (4mm)  point group:

     e(  1 -  1) =    -69.45828  eV     1   --> A_1  G_1 D_1   
     e(  2 -  2) =    -38.16847  eV     1   --> A_1  G_1 D_1   
     e(  3 -  4) =    -38.16388  eV     2   --> E    G_5 D_5   
     e(  5 -  5) =    -22.47166  eV     1   --> A_1  G_1 D_1   
     e(  6 -  6) =     -7.92289  eV     1   --> A_1  G_1 D_1   
     e(  7 -  7) =     -6.66630  eV     1   --> A_1  G_1 D_1   
     e(  8 -  8) =     -6.49134  eV     1   --> B_1  G_3 D_2   
     e(  9 - 10) =     -4.44101  eV     2   --> E    G_5 D_5   
     e( 11 - 11) =     -4.04195  eV     1   --> A_1  G_1 D_1   
     e( 12 - 12) =      5.22562  eV     1   --> A_1  G_1 D_1   
     e( 13 - 14) =      6.39714  eV     2   --> E    G_5 D_5   
     e( 15 - 16) =      7.48251  eV     2   --> E    G_5 D_5   
     e( 17 - 17) =      7.72030  eV     1   --> A_1  G_1 D_1   
     e( 18 - 18) =      8.12973  eV     1   --> B_1  G_3 D_2   
     e( 19 - 20) =      9.05239  eV     2   --> E    G_5 D_5   
     e( 21 - 21) =      9.54950  eV     1   --> B_2  G_4 D_2'  
     e( 22 - 22) =     11.00662  eV     1   --> B_1  G_3 D_2   
     e( 23 - 24) =     11.05419  eV     2   --> E    G_5 D_5   
     e( 25 - 25) =     12.85957  eV     1   --> A_1  G_1 D_1   
     e( 26 - 26) =     17.25771  eV     1   -->   ?

 **************************************************************************

 **************************************************************************

                    xk=(   0.00000,   0.37500,   0.00000  )

     Band symmetry, C_4v (4mm)  point group:

     e(  1 -  1) =    -69.45828  eV     1   --> A_1  G_1 D_1   
     e(  2 -  2) =    -38.16880  eV     1   --> A_1  G_1 D_1   
     e(  3 -  4) =    -38.16387  eV     2   --> E    G_5 D_5   
     e(  5 -  5) =    -22.47003  eV     1   --> A_1  G_1 D_1   
     e(  6 -  6) =     -7.93149  eV     1   --> A_1  G_1 D_1   
     e(  7 -  7) =     -6.66419  eV     1   --> A_1  G_1 D_1   
     e(  8 -  8) =     -6.48889  eV     1   --> B_1  G_3 D_2   
     e(  9 - 10) =     -4.43727  eV     2   --> E    G_5 D_5   
     e( 11 - 11) =     -4.01460  eV     1   --> A_1  G_1 D_1   
     e( 12 - 12) =      5.14884  eV     1   --> A_1  G_1 D_1   
     e( 13 - 14) =      6.40277  eV     2   --> E    G_5 D_5   
     e( 15 - 16) =      7.41652  eV     2   --> E    G_5 D_5   
     e( 17 - 17) =      7.63833  eV     1   --> A_1  G_1 D_1   
     e( 18 - 18) =      8.08736  eV     1   --> B_1  G_3 D_2   
     e( 19 - 20) =      9.03673  eV     2   --> E    G_5 D_5   
     e( 21 - 21) =      9.55273  eV     1   --> B_2  G_4 D_2'  
     e( 22 - 22) =     11.00693  eV     1   --> B_1  G_3 D_2   
     e( 23 - 24) =     11.12229  eV     2   --> E    G_5 D_5   
     e( 25 - 25) =     12.94500  eV     1   --> A_1  G_1 D_1   
     e( 26 - 26) =     17.39662  eV     1   -->   ?

 **************************************************************************

 **************************************************************************

                    xk=(   0.00000,   0.40000,   0.00000  )

     Band symmetry, C_4v (4mm)  point group:

     e(  1 -  1) =    -69.45826  eV     1   --> A_1  G_1 D_1   
     e(  2 -  2) =    -38.16907  eV     1   --> A_1  G_1 D_1   
     e(  3 -  4) =    -38.16385  eV     2   --> E    G_5 D_5   
     e(  5 -  5) =    -22.46864  eV     1   --> A_1  G_1 D_1   
     e(  6 -  6) =     -7.93939  eV     1   --> A_1  G_1 D_1   
     e(  7 -  7) =     -6.66121  eV     1   --> A_1  G_1 D_1   
     e(  8 -  8) =     -6.48679  eV     1   --> B_1  G_3 D_2   
     e(  9 - 10) =     -4.43406  eV     2   --> E    G_5 D_5   
     e( 11 - 11) =     -3.99179  eV     1   --> A_1  G_1 D_1   
     e( 12 - 12) =      5.08415  eV     1   --> A_1  G_1 D_1   
     e( 13 - 14) =      6.40832  eV     2   --> E    G_5 D_5   
     e( 15 - 16) =      7.36096  eV     2   --> E    G_5 D_5   
     e( 17 - 17) =      7.57036  eV     1   --> A_1  G_1 D_1   
     e( 18 - 18) =      8.05168  eV     1   --> B_1  G_3 D_2   
     e( 19 - 20) =      9.02362  eV     2   --> E    G_5 D_5   
     e( 21 - 21) =      9.55553  eV     1   --> B_2  G_4 D_2'  
     e( 22 - 22) =     11.00728  eV     1   --> B_1  G_3 D_2   
     e( 23 - 24) =     11.17904  eV     2   --> E    G_5 D_5   
     e( 25 - 25) =     13.01545  eV     1   --> A_1  G_1 D_1   
     e( 26 - 26) =     17.51792  eV     1   -->   ?

 **************************************************************************

 **************************************************************************

                    xk=(   0.00000,   0.42500,   0.00000  )

     Band symmetry, C_4v (4mm)  point group:

     e(  1 -  1) =    -69.45824  eV     1   --> A_1  G_1 D_1   
     e(  2 -  2) =    -38.16930  eV     1   --> A_1  G_1 D_1   
     e(  3 -  4) =    -38.16383  eV     2   --> E    G_5 D_5   
     e(  5 -  5) =    -22.46751  eV     1   --> A_1  G_1 D_1   
     e(  6 -  6) =     -7.94610  eV     1   --> A_1  G_1 D_1   
     e(  7 -  7) =     -6.65805  eV     1   --> A_1  G_1 D_1   
     e(  8 -  8) =     -6.48510  eV     1   --> B_1  G_3 D_2   
     e(  9 - 10) =     -4.43148  eV     2   --> E    G_5 D_5   
     e( 11 - 11) =     -3.97379  eV     1   --> A_1  G_1 D_1   
     e( 12 - 12) =      5.03263  eV     1   --> A_1  G_1 D_1   
     e( 13 - 14) =      6.41337  eV     2   --> E    G_5 D_5   
     e( 15 - 16) =      7.31656  eV     2   --> E    G_5 D_5   
     e( 17 - 17) =      7.51692  eV     1   --> A_1  G_1 D_1   
     e( 18 - 18) =      8.02332  eV     1   --> B_1  G_3 D_2   
     e( 19 - 20) =      9.01320  eV     2   --> E    G_5 D_5   
     e( 21 - 21) =      9.55776  eV     1   --> B_2  G_4 D_2'  
     e( 22 - 22) =     11.00753  eV     1   --> B_1  G_3 D_2   
     e( 23 - 24) =     11.22380  eV     2   --> E    G_5 D_5   
     e( 25 - 25) =     13.07058  eV     1   --> A_1  G_1 D_1   
     e( 26 - 26) =     17.61725  eV     1   -->   ?

 **************************************************************************

 **************************************************************************

                    xk=(   0.00000,   0.45000,   0.00000  )

     Band symmetry, C_4v (4mm)  point group:

     e(  1 -  1) =    -69.45828  eV     1   --> A_1  G_1 D_1   
     e(  2 -  2) =    -38.16946  eV     1   --> A_1  G_1 D_1   
     e(  3 -  4) =    -38.16383  eV     2   --> E    G_5 D_5   
     e(  5 -  5) =    -22.46671  eV     1   --> A_1  G_1 D_1   
     e(  6 -  6) =     -7.95125  eV     1   --> A_1  G_1 D_1   
     e(  7 -  7) =     -6.65534  eV     1   --> A_1  G_1 D_1   
     e(  8 -  8) =     -6.48386  eV     1   --> B_1  G_3 D_2   
     e(  9 - 10) =     -4.42959  eV     2   --> E    G_5 D_5   
     e( 11 - 11) =     -3.96086  eV     1   --> A_1  G_1 D_1   
     e( 12 - 12) =      4.99511  eV     1   --> A_1  G_1 D_1   
     e( 13 - 14) =      6.41743  eV     2   --> E    G_5 D_5   
     e( 15 - 16) =      7.28404  eV     2   --> E    G_5 D_5   
     e( 17 - 17) =      7.47822  eV     1   --> A_1  G_1 D_1   
     e( 18 - 18) =      8.00273  eV     1   --> B_1  G_3 D_2   
     e( 19 - 20) =      9.00559  eV     2   --> E    G_5 D_5   
     e( 21 - 21) =      9.55936  eV     1   --> B_2  G_4 D_2'  
     e( 22 - 22) =     11.00769  eV     1   --> B_1  G_3 D_2   
     e( 23 - 24) =     11.25600  eV     2   --> E    G_5 D_5   
     e( 25 - 25) =     13.10991  eV     1   --> A_1  G_1 D_1   
     e( 26 - 26) =     17.50995  eV     1   -->   ?

 **************************************************************************

 **************************************************************************

                    xk=(   0.00000,   0.47500,   0.00000  )

     Band symmetry, C_4v (4mm)  point group:

     e(  1 -  1) =    -69.45827  eV     1   --> A_1  G_1 D_1   
     e(  2 -  2) =    -38.16956  eV     1   --> A_1  G_1 D_1   
     e(  3 -  4) =    -38.16382  eV     2   --> E    G_5 D_5   
     e(  5 -  5) =    -22.46621  eV     1   --> A_1  G_1 D_1   
     e(  6 -  6) =     -7.95444  eV     1   --> A_1  G_1 D_1   
     e(  7 -  7) =     -6.65351  eV     1   --> A_1  G_1 D_1   
     e(  8 -  8) =     -6.48311  eV     1   --> B_1  G_3 D_2   
     e(  9 - 10) =     -4.42844  eV     2   --> E    G_5 D_5   
     e( 11 - 11) =     -3.95303  eV     1   --> A_1  G_1 D_1   
     e( 12 - 12) =      4.97240  eV     1   --> A_1  G_1 D_1   
     e( 13 - 14) =      6.42009  eV     2   --> E    G_5 D_5   
     e( 15 - 16) =      7.26427  eV     2   --> E    G_5 D_5   
     e( 17 - 17) =      7.45499  eV     1   --> A_1  G_1 D_1   
     e( 18 - 18) =      7.99025  eV     1   --> B_1  G_3 D_2   
     e( 19 - 20) =      9.00100  eV     2   --> E    G_5 D_5   
     e( 21 - 21) =      9.56036  eV     1   --> B_2  G_4 D_2'  
     e( 22 - 22) =     11.00780  eV     1   --> B_1  G_3 D_2   
     e( 23 - 24) =     11.27552  eV     2   --> E    G_5 D_5   
     e( 25 - 25) =     13.13368  eV     1   --> A_1  G_1 D_1   
     e( 26 - 26) =     17.73679  eV     1   -->   ?

 **************************************************************************

 **************************************************************************

                    xk=(   0.00000,   0.50000,   0.00000  )

     point group D_4h(4/mmm)
     there are 10 classes
     the character table:

       E     2C4   C2    2C2'  2C2'' i     2S4   s_h   2s_v  2s_d 
A_1g   1.00  1.00  1.00  1.00  1.00  1.00  1.00  1.00  1.00  1.00
A_2g   1.00  1.00  1.00 -1.00 -1.00  1.00  1.00  1.00 -1.00 -1.00
B_1g   1.00 -1.00  1.00  1.00 -1.00  1.00 -1.00  1.00  1.00 -1.00
B_2g   1.00 -1.00  1.00 -1.00  1.00  1.00 -1.00  1.00 -1.00  1.00
E_g    2.00  0.00 -2.00  0.00  0.00  2.00  0.00 -2.00  0.00  0.00
A_1u   1.00  1.00  1.00  1.00  1.00 -1.00 -1.00 -1.00 -1.00 -1.00
A_2u   1.00  1.00  1.00 -1.00 -1.00 -1.00 -1.00 -1.00  1.00  1.00
B_1u   1.00 -1.00  1.00  1.00 -1.00 -1.00  1.00 -1.00 -1.00  1.00
B_2u   1.00 -1.00  1.00 -1.00  1.00 -1.00  1.00 -1.00  1.00 -1.00
E_u    2.00  0.00 -2.00  0.00  0.00 -2.00  0.00  2.00  0.00  0.00

     the symmetry operations in each class and the name of the first element:

     E        1
                                                                 
     2C4      7    8
                                                                 
     C2       3
                                                                 
     2C2'     2    4
                                                                 
     2C2''    5    6
                                                                 
     i        9
                                                                 
     2S4     15   16
                                                                 
     s_h     11
                                                                 
     2s_v    10   12
                                                                 
     2s_d    13   14
                                                                 

     Band symmetry, D_4h(4/mmm) point group:

     e(  1 -  1) =    -69.45823  eV     1   --> A_1g X_1  M_1  
     e(  2 -  2) =    -38.16959  eV     1   --> A_2u X_4' M_4' 
     e(  3 -  4) =    -38.16381  eV     2   --> E_u  X_5' M_5' 
     e(  5 -  5) =    -22.46602  eV     1   --> A_2u X_4' M_4' 
     e(  6 -  6) =     -7.95553  eV     1   --> A_1g X_1  M_1  
     e(  7 -  7) =     -6.65285  eV     1   --> A_2u X_4' M_4' 
     e(  8 -  8) =     -6.48283  eV     1   --> B_1g X_2  M_2  
     e(  9 - 10) =     -4.42803  eV     2   --> E_g  X_5  M_5  
     e( 11 - 11) =     -3.95038  eV     1   --> A_1g X_1  M_1  
     e( 12 - 12) =      4.96479  eV     1   --> A_1g X_1  M_1  
     e( 13 - 14) =      6.42112  eV     2   --> E_u  X_5' M_5' 
     e( 15 - 16) =      7.25764  eV     2   --> E_g  X_5  M_5  
     e( 17 - 17) =      7.44723  eV     1   --> A_2u X_4' M_4' 
     e( 18 - 18) =      7.98619  eV     1   --> B_2u X_3' M_3' 
     e( 19 - 20) =      8.99947  eV     2   --> E_u  X_5' M_5' 
     e( 21 - 21) =      9.56078  eV     1   --> B_2g X_3  M_3  
     e( 22 - 22) =     11.00798  eV     1   --> B_1g X_2  M_2  
     e( 23 - 24) =     11.28218  eV     2   --> E_g  X_5  M_5  
     e( 25 - 25) =     13.14187  eV     1   --> A_1g X_1  M_1  
     e( 26 - 26) =     17.75227  eV     1   -->   ?

 **************************************************************************

 **************************************************************************

                    xk=(   0.02500,   0.50000,   0.00000  )

     point group C_2v (mm2) 
     there are  4 classes
     the character table:

       E     C2    s_v   s_v' 
A_1    1.00  1.00  1.00  1.00
A_2    1.00  1.00 -1.00 -1.00
B_1    1.00 -1.00  1.00 -1.00
B_2    1.00 -1.00 -1.00  1.00

     the symmetry operations in each class and the name of the first element:

     E        1
                                                                 
     C2       2
                                                                 
     s_v      4
                                                                 
     s_v'     3
                                                                 

     Band symmetry, C_2v (mm2)  point group:

     e(  1 -  1) =    -69.45826  eV     1   --> A_1  D_1  S_1  
     e(  2 -  2) =    -38.16959  eV     1   --> B_2  D_4  S_4  
     e(  3 -  4) =    -38.16385  eV     2   --> A_1  D_1  S_1  
     e(  3 -  4) =    -38.16385  eV     2   --> B_1  D_3  S_3  
     e(  5 -  5) =    -22.46589  eV     1   --> B_2  D_4  S_4  
     e(  6 -  6) =     -7.95242  eV     1   --> A_1  D_1  S_1  
     e(  7 -  7) =     -6.65530  eV     1   --> B_2  D_4  S_4  
     e(  8 -  8) =     -6.48330  eV     1   --> A_1  D_1  S_1  
     e(  9 -  9) =     -4.42765  eV     1   --> A_2  D_2  S_2  
     e( 10 - 10) =     -4.42630  eV     1   --> B_2  D_4  S_4  
     e( 11 - 11) =     -3.95211  eV     1   --> A_1  D_1  S_1  
     e( 12 - 12) =      4.96392  eV     1   --> A_1  D_1  S_1  
     e( 13 - 13) =      6.41387  eV     1   --> A_1  D_1  S_1  
     e( 14 - 14) =      6.42239  eV     1   --> B_1  D_3  S_3  
     e( 15 - 15) =      7.16818  eV     1   --> B_2  D_4  S_4  
     e( 16 - 16) =      7.25486  eV     1   --> A_2  D_2  S_2  
     e( 17 - 17) =      7.52008  eV     1   --> B_2  D_4  S_4  
     e( 18 - 18) =      8.00835  eV     1   --> B_2  D_4  S_4  
     e( 19 - 19) =      8.96763  eV     1   --> B_1  D_3  S_3  
     e( 20 - 20) =      8.98152  eV     1   --> A_1  D_1  S_1  
     e( 21 - 21) =      9.59327  eV     1   --> B_1  D_3  S_3  
     e( 22 - 22) =     11.02800  eV     1   --> A_1  D_1  S_1  
     e( 23 - 23) =     11.28059  eV     1   --> B_2  D_4  S_4  
     e( 24 - 24) =     11.28142  eV     1   --> A_2  D_2  S_2  
     e( 25 - 25) =     13.15149  eV     1   --> A_1  D_1  S_1  
     e( 26 - 26) =     17.76221  eV     1   --> B_2  D_4  S_4  

 **************************************************************************

 **************************************************************************

                    xk=(   0.05000,   0.50000,   0.00000  )

     Band symmetry, C_2v (mm2)  point group:

     e(  1 -  1) =    -69.45825  eV     1   --> A_1  D_1  S_1  
     e(  2 -  2) =    -38.16958  eV     1   --> B_2  D_4  S_4  
     e(  3 -  3) =    -38.16394  eV     1   -->   ?
     e(  4 -  4) =    -38.16381  eV     1   -->   ?
     e(  5 -  5) =    -22.46549  eV     1   --> B_2  D_4  S_4  
     e(  6 -  6) =     -7.94308  eV     1   --> A_1  D_1  S_1  
     e(  7 -  7) =     -6.66256  eV     1   --> B_2  D_4  S_4  
     e(  8 -  8) =     -6.48472  eV     1   --> A_1  D_1  S_1  
     e(  9 -  9) =     -4.42651  eV     1   --> A_2  D_2  S_2  
     e( 10 - 10) =     -4.42111  eV     1   --> B_2  D_4  S_4  
     e( 11 - 11) =     -3.95721  eV     1   --> A_1  D_1  S_1  
     e( 12 - 12) =      4.96130  eV     1   --> A_1  D_1  S_1  
     e( 13 - 13) =      6.39230  eV     1   --> A_1  D_1  S_1  
     e( 14 - 14) =      6.42623  eV     1   --> B_1  D_3  S_3  
     e( 15 - 15) =      7.01643  eV     1   --> B_2  D_4  S_4  
     e( 16 - 16) =      7.24662  eV     1   --> A_2  D_2  S_2  
     e( 17 - 17) =      7.62031  eV     1   --> B_2  D_4  S_4  
     e( 18 - 18) =      8.07648  eV     1   --> B_2  D_4  S_4  
     e( 19 - 19) =      8.88797  eV     1   --> B_1  D_3  S_3  
     e( 20 - 20) =      8.93152  eV     1   --> A_1  D_1  S_1  
     e( 21 - 21) =      9.67506  eV     1   --> B_1  D_3  S_3  
     e( 22 - 22) =     11.08425  eV     1   --> A_1  D_1  S_1  
     e( 23 - 23) =     11.27623  eV     1   --> B_2  D_4  S_4  
     e( 24 - 24) =     11.27929  eV     1   --> A_2  D_2  S_2  
     e( 25 - 25) =     13.18082  eV     1   --> A_1  D_1  S_1  
     e( 26 - 26) =     17.79179  eV     1   --> B_2  D_4  S_4  

 **************************************************************************

 **************************************************************************

                    xk=(   0.07500,   0.50000,   0.00000  )

     Band symmetry, C_2v (mm2)  point group:

     e(  1 -  1) =    -69.45826  eV     1   --> A_1  D_1  S_1  
     e(  2 -  2) =    -38.16958  eV     1   --> B_2  D_4  S_4  
     e(  3 -  3) =    -38.16411  eV     1   --> A_1  D_1  S_1  
     e(  4 -  4) =    -38.16380  eV     1   --> B_1  D_3  S_3  
     e(  5 -  5) =    -22.46480  eV     1   --> B_2  D_4  S_4  
     e(  6 -  6) =     -7.92766  eV     1   --> A_1  D_1  S_1  
     e(  7 -  7) =     -6.67437  eV     1   --> B_2  D_4  S_4  
     e(  8 -  8) =     -6.48723  eV     1   --> A_1  D_1  S_1  
     e(  9 -  9) =     -4.42462  eV     1   --> A_2  D_2  S_2  
     e( 10 - 10) =     -4.41265  eV     1   --> B_2  D_4  S_4  
     e( 11 - 11) =     -3.96548  eV     1   --> A_1  D_1  S_1  
     e( 12 - 12) =      4.95692  eV     1   --> A_1  D_1  S_1  
     e( 13 - 13) =      6.35603  eV     1   --> A_1  D_1  S_1  
     e( 14 - 14) =      6.43270  eV     1   --> B_1  D_3  S_3  
     e( 15 - 15) =      6.85453  eV     1   --> B_2  D_4  S_4  
     e( 16 - 16) =      7.23316  eV     1   --> A_2  D_2  S_2  
     e( 17 - 17) =      7.69851  eV     1   --> B_2  D_4  S_4  
     e( 18 - 18) =      8.18735  eV     1   --> B_2  D_4  S_4  
     e( 19 - 19) =      8.78443  eV     1   --> B_1  D_3  S_3  
     e( 20 - 20) =      8.85898  eV     1   --> A_1  D_1  S_1  
     e( 21 - 21) =      9.78208  eV     1   --> B_1  D_3  S_3  
     e( 22 - 22) =     11.16686  eV     1   --> A_1  D_1  S_1  
     e( 23 - 23) =     11.26939  eV     1   --> B_2  D_4  S_4  
     e( 24 - 24) =     11.27596  eV     1   --> A_2  D_2  S_2  
     e( 25 - 25) =     13.23044  eV     1   --> A_1  D_1  S_1  
     e( 26 - 26) =     17.60654  eV     1   --> B_2  D_4  S_4  

 **************************************************************************

 **************************************************************************

                    xk=(   0.10000,   0.50000,   0.00000  )

     Band symmetry, C_2v (mm2)  point group:

     e(  1 -  1) =    -69.45825  eV     1   --> A_1  D_1  S_1  
     e(  2 -  2) =    -38.16956  eV     1   --> B_2  D_4  S_4  
     e(  3 -  3) =    -38.16434  eV     1   --> A_1  D_1  S_1  
     e(  4 -  4) =    -38.16379  eV     1   --> B_1  D_3  S_3  
     e(  5 -  5) =    -22.46387  eV     1   --> B_2  D_4  S_4  
     e(  6 -  6) =     -7.90621  eV     1   --> A_1  D_1  S_1  
     e(  7 -  7) =     -6.69036  eV     1   --> B_2  D_4  S_4  
     e(  8 -  8) =     -6.49107  eV     1   --> A_1  D_1  S_1  
     e(  9 -  9) =     -4.42204  eV     1   --> A_2  D_2  S_2  
     e( 10 - 10) =     -4.40123  eV     1   --> B_2  D_4  S_4  
     e( 11 - 11) =     -3.97665  eV     1   --> A_1  D_1  S_1  
     e( 12 - 12) =      4.95067  eV     1   --> A_1  D_1  S_1  
     e( 13 - 13) =      6.30488  eV     1   --> A_1  D_1  S_1  
     e( 14 - 14) =      6.44179  eV     1   --> B_1  D_3  S_3  
     e( 15 - 15) =      6.69151  eV     1   --> B_2  D_4  S_4  
     e( 16 - 16) =      7.21481  eV     1   --> A_2  D_2  S_2  
     e( 17 - 17) =      7.75834  eV     1   --> B_2  D_4  S_4  
     e( 18 - 18) =      8.32732  eV     1   --> B_2  D_4  S_4  
     e( 19 - 19) =      8.67068  eV     1   --> B_1  D_3  S_3  
     e( 20 - 20) =      8.77501  eV     1   --> A_1  D_1  S_1  
     e( 21 - 21) =      9.90028  eV     1   --> B_1  D_3  S_3  
     e( 22 - 22) =     11.26053  eV     1   --> B_2  D_4  S_4  
     e( 23 - 23) =     11.26378  eV     1   --> A_1  D_1  S_1  
     e( 24 - 24) =     11.27150  eV     1   --> A_2  D_2  S_2  
     e( 25 - 25) =     13.30062  eV     1   --> A_1  D_1  S_1  
     e( 26 - 26) =     17.64252  eV     1   --> B_2  D_4  S_4  

 **************************************************************************

 **************************************************************************

                    xk=(   0.12500,   0.50000,   0.00000  )

     Band symmetry, C_2v (mm2)  point group:

     e(  1 -  1) =    -69.45823  eV     1   --> A_1  D_1  S_1  
     e(  2 -  2) =    -38.16955  eV     1   --> B_2  D_4  S_4  
     e(  3 -  3) =    -38.16461  eV     1   --> A_1  D_1  S_1  
     e(  4 -  4) =    -38.16377  eV     1   --> B_1  D_3  S_3  
     e(  5 -  5) =    -22.46270  eV     1   --> B_2  D_4  S_4  
     e(  6 -  6) =     -7.87891  eV     1   --> A_1  D_1  S_1  
     e(  7 -  7) =     -6.71003  eV     1   --> B_2  D_4  S_4  
     e(  8 -  8) =     -6.49657  eV     1   --> A_1  D_1  S_1  
     e(  9 -  9) =     -4.41883  eV     1   --> A_2  D_2  S_2  
     e( 10 - 10) =     -4.38718  eV     1   --> B_2  D_4  S_4  
     e( 11 - 11) =     -3.99030  eV     1   --> A_1  D_1  S_1  
     e( 12 - 12) =      4.94253  eV     1   --> A_1  D_1  S_1  
     e( 13 - 13) =      6.23913  eV     1   --> A_1  D_1  S_1  
     e( 14 - 14) =      6.45349  eV     1   --> B_1  D_3  S_3  
     e( 15 - 15) =      6.53111  eV     1   --> B_2  D_4  S_4  
     e( 16 - 16) =      7.19211  eV     1   --> A_2  D_2  S_2  
     e( 17 - 17) =      7.80957  eV     1   --> B_2  D_4  S_4  
     e( 18 - 18) =      8.48186  eV     1   --> B_2  D_4  S_4  
     e( 19 - 19) =      8.55322  eV     1   --> B_1  D_3  S_3  
     e( 20 - 20) =      8.68968  eV     1   --> A_1  D_1  S_1  
     e( 21 - 21) =     10.02298  eV     1   --> B_1  D_3  S_3  
     e( 22 - 22) =     11.25049  eV     1   --> B_2  D_4  S_4  
     e( 23 - 23) =     11.26609  eV     1   --> A_2  D_2  S_2  
     e( 24 - 24) =     11.36453  eV     1   --> A_1  D_1  S_1  
     e( 25 - 25) =     13.39124  eV     1   --> A_1  D_1  S_1  
     e( 26 - 26) =     17.68700  eV     1   --> B_2  D_4  S_4  

 **************************************************************************

 **************************************************************************

                    xk=(   0.15000,   0.50000,   0.00000  )

     Band symmetry, C_2v (mm2)  point group:

     e(  1 -  1) =    -69.45824  eV     1   --> A_1  D_1  S_1  
     e(  2 -  2) =    -38.16953  eV     1   --> B_2  D_4  S_4  
     e(  3 -  3) =    -38.16494  eV     1   --> A_1  D_1  S_1  
     e(  4 -  4) =    -38.16375  eV     1   --> B_1  D_3  S_3  
     e(  5 -  5) =    -22.46135  eV     1   --> B_2  D_4  S_4  
     e(  6 -  6) =     -7.84598  eV     1   --> A_1  D_1  S_1  
     e(  7 -  7) =     -6.73279  eV     1   --> B_2  D_4  S_4  
     e(  8 -  8) =     -6.50411  eV     1   --> A_1  D_1  S_1  
     e(  9 -  9) =     -4.41506  eV     1   --> A_2  D_2  S_2  
     e( 10 - 10) =     -4.37099  eV     1   --> B_2  D_4  S_4  
     e( 11 - 11) =     -4.00599  eV     1   --> A_1  D_1  S_1  
     e( 12 - 12) =      4.93220  eV     1   --> A_1  D_1  S_1  
     e( 13 - 13) =      6.15961  eV     1   --> A_1  D_1  S_1  
     e( 14 - 14) =      6.37523  eV     1   --> B_2  D_4  S_4  
     e( 15 - 15) =      6.46779  eV     1   --> B_1  D_3  S_3  
     e( 16 - 16) =      7.16565  eV     1   --> A_2  D_2  S_2  
[...]
     e(  6 -  6) =     -7.79154  eV     1   --> A_1  D_1  S_1  
     e(  7 -  7) =     -6.75336  eV     1   --> B_1  D_3  S_3  
     e(  8 -  8) =     -6.53111  eV     1   --> A_1  D_1  S_1  
     e(  9 -  9) =     -4.43793  eV     1   --> B_2  D_4  S_4  
     e( 10 - 10) =     -4.33204  eV     1   --> B_1  D_3  S_3  
     e( 11 - 11) =     -4.20531  eV     1   --> A_1  D_1  S_1  
     e( 12 - 12) =      5.50903  eV     1   --> A_1  D_1  S_1  
     e( 13 - 13) =      5.95261  eV     1   --> B_1  D_3  S_3  
     e( 14 - 14) =      6.41377  eV     1   --> B_2  D_4  S_4  
     e( 15 - 15) =      6.85063  eV     1   --> A_1  D_1  S_1  
     e( 16 - 16) =      7.61120  eV     1   --> A_2  D_2  S_2  
     e( 17 - 17) =      8.22888  eV     1   --> A_1  D_1  S_1  
     e( 18 - 18) =      8.40346  eV     1   --> B_2  D_4  S_4  
     e( 19 - 19) =      8.58698  eV     1   --> B_1  D_3  S_3  
     e( 20 - 20) =      9.09510  eV     1   --> B_1  D_3  S_3  
     e( 21 - 21) =     10.51190  eV     1   --> B_2  D_4  S_4  
     e( 22 - 22) =     10.56085  eV     1   --> A_2  D_2  S_2  
     e( 23 - 23) =     10.66825  eV     1   --> A_1  D_1  S_1  
     e( 24 - 24) =     11.58253  eV     1   --> A_1  D_1  S_1  
     e( 25 - 25) =     12.98791  eV     1   --> B_1  D_3  S_3  
     e( 26 - 26) =     16.95525  eV     1   -->   ?

 **************************************************************************

 **************************************************************************

                    xk=(   0.20000,   0.20000,   0.00000  )

     Band symmetry, C_2v (mm2)  point group:

     e(  1 -  1) =    -69.45828  eV     1   --> A_1  D_1  S_1  
     e(  2 -  3) =    -38.16592  eV     2   --> A_1  D_1  S_1  
     e(  2 -  3) =    -38.16592  eV     2   --> B_1  D_3  S_3  
     e(  4 -  4) =    -38.16392  eV     1   --> B_2  D_4  S_4  
     e(  5 -  5) =    -22.47500  eV     1   --> A_1  D_1  S_1  
     e(  6 -  6) =     -7.81907  eV     1   --> A_1  D_1  S_1  
     e(  7 -  7) =     -6.71503  eV     1   --> B_1  D_3  S_3  
     e(  8 -  8) =     -6.53238  eV     1   --> A_1  D_1  S_1  
     e(  9 -  9) =     -4.44747  eV     1   --> B_2  D_4  S_4  
     e( 10 - 10) =     -4.35735  eV     1   --> B_1  D_3  S_3  
     e( 11 - 11) =     -4.23471  eV     1   --> A_1  D_1  S_1  
     e( 12 - 12) =      5.64178  eV     1   --> A_1  D_1  S_1  
     e( 13 - 13) =      6.04017  eV     1   --> B_1  D_3  S_3  
     e( 14 - 14) =      6.39859  eV     1   --> B_2  D_4  S_4  
     e( 15 - 15) =      7.12154  eV     1   --> A_1  D_1  S_1  
     e( 16 - 16) =      7.74840  eV     1   --> A_2  D_2  S_2  
     e( 17 - 17) =      8.32819  eV     1   --> A_1  D_1  S_1  
     e( 18 - 18) =      8.52810  eV     1   --> B_2  D_4  S_4  
     e( 19 - 19) =      8.64287  eV     1   --> B_1  D_3  S_3  
     e( 20 - 20) =      9.03683  eV     1   --> B_1  D_3  S_3  
     e( 21 - 21) =     10.40457  eV     1   --> B_2  D_4  S_4  
     e( 22 - 22) =     10.44370  eV     1   --> A_2  D_2  S_2  
     e( 23 - 23) =     10.55634  eV     1   --> A_1  D_1  S_1  
     e( 24 - 24) =     11.51462  eV     1   --> A_1  D_1  S_1  
     e( 25 - 25) =     12.70033  eV     1   --> B_1  D_3  S_3  
     e( 26 - 26) =     16.75250  eV     1   -->   ?

 **************************************************************************

 **************************************************************************

                    xk=(   0.17500,   0.17500,   0.00000  )

     Band symmetry, C_2v (mm2)  point group:

     e(  1 -  1) =    -69.45830  eV     1   --> A_1  D_1  S_1  
     e(  2 -  3) =    -38.16555  eV     2   --> A_1  D_1  S_1  
     e(  2 -  3) =    -38.16555  eV     2   --> B_1  D_3  S_3  
     e(  4 -  4) =    -38.16397  eV     1   --> B_2  D_4  S_4  
     e(  5 -  5) =    -22.47874  eV     1   --> A_1  D_1  S_1  
     e(  6 -  6) =     -7.84037  eV     1   --> A_1  D_1  S_1  
     e(  7 -  7) =     -6.67744  eV     1   --> B_1  D_3  S_3  
     e(  8 -  8) =     -6.53421  eV     1   --> A_1  D_1  S_1  
     e(  9 -  9) =     -4.45650  eV     1   --> B_2  D_4  S_4  
     e( 10 - 10) =     -4.38258  eV     1   --> B_1  D_3  S_3  
     e( 11 - 11) =     -4.27075  eV     1   --> A_1  D_1  S_1  
     e( 12 - 12) =      5.77528  eV     1   --> A_1  D_1  S_1  
     e( 13 - 13) =      6.12002  eV     1   --> B_1  D_3  S_3  
     e( 14 - 14) =      6.38746  eV     1   --> B_2  D_4  S_4  
     e( 15 - 15) =      7.39373  eV     1   --> A_1  D_1  S_1  
     e( 16 - 16) =      7.89267  eV     1   --> A_2  D_2  S_2  
     e( 17 - 17) =      8.45383  eV     1   --> A_1  D_1  S_1  
     e( 18 - 18) =      8.65188  eV     1   --> B_2  D_4  S_4  
     e( 19 - 19) =      8.70144  eV     1   --> B_1  D_3  S_3  
     e( 20 - 20) =      9.00133  eV     1   --> B_1  D_3  S_3  
     e( 21 - 21) =     10.29410  eV     1   --> B_2  D_4  S_4  
     e( 22 - 22) =     10.31837  eV     1   --> A_2  D_2  S_2  
     e( 23 - 23) =     10.43778  eV     1   --> A_1  D_1  S_1  
     e( 24 - 24) =     11.44110  eV     1   --> A_1  D_1  S_1  
     e( 25 - 25) =     12.41318  eV     1   --> B_1  D_3  S_3  
     e( 26 - 26) =     16.55193  eV     1   -->   ?

 **************************************************************************

 **************************************************************************

                    xk=(   0.15000,   0.15000,   0.00000  )

     Band symmetry, C_2v (mm2)  point group:

     e(  1 -  1) =    -69.45832  eV     1   --> A_1  D_1  S_1  
     e(  2 -  3) =    -38.16521  eV     2   --> A_1  D_1  S_1  
     e(  2 -  3) =    -38.16521  eV     2   --> B_1  D_3  S_3  
     e(  4 -  4) =    -38.16401  eV     1   --> B_2  D_4  S_4  
     e(  5 -  5) =    -22.48223  eV     1   --> A_1  D_1  S_1  
     e(  6 -  6) =     -7.85638  eV     1   --> A_1  D_1  S_1  
     e(  7 -  7) =     -6.64166  eV     1   --> B_1  D_3  S_3  
     e(  8 -  8) =     -6.53530  eV     1   --> A_1  D_1  S_1  
     e(  9 -  9) =     -4.46480  eV     1   --> B_2  D_4  S_4  
     e( 10 - 10) =     -4.40701  eV     1   --> B_1  D_3  S_3  
     e( 11 - 11) =     -4.31165  eV     1   --> A_1  D_1  S_1  
     e( 12 - 12) =      5.90617  eV     1   --> A_1  D_1  S_1  
     e( 13 - 13) =      6.18981  eV     1   --> B_1  D_3  S_3  
     e( 14 - 14) =      6.37971  eV     1   --> B_2  D_4  S_4  
     e( 15 - 15) =      7.66194  eV     1   --> A_1  D_1  S_1  
     e( 16 - 16) =      8.04230  eV     1   --> A_2  D_2  S_2  
     e( 17 - 17) =      8.60108  eV     1   --> A_1  D_1  S_1  
     e( 18 - 18) =      8.75003  eV     1   --> B_1  D_3  S_3  
     e( 19 - 19) =      8.77449  eV     1   --> B_2  D_4  S_4  
     e( 20 - 20) =      9.00227  eV     1   --> B_1  D_3  S_3  
     e( 21 - 21) =     10.18140  eV     1   --> B_2  D_4  S_4  
     e( 22 - 22) =     10.18610  eV     1   --> A_2  D_2  S_2  
     e( 23 - 23) =     10.31275  eV     1   --> A_1  D_1  S_1  
     e( 24 - 24) =     11.36301  eV     1   --> A_1  D_1  S_1  
     e( 25 - 25) =     12.13062  eV     1   --> B_1  D_3  S_3  
     e( 26 - 26) =     16.35792  eV     1   --> A_1  D_1  S_1  

 **************************************************************************

 **************************************************************************

                    xk=(   0.12500,   0.12500,   0.00000  )

     Band symmetry, C_2v (mm2)  point group:

     e(  1 -  1) =    -69.45836  eV     1   --> A_1  D_1  S_1  
     e(  2 -  3) =    -38.16490  eV     2   --> A_1  D_1  S_1  
     e(  2 -  3) =    -38.16490  eV     2   --> B_1  D_3  S_3  
     e(  4 -  4) =    -38.16404  eV     1   --> B_2  D_4  S_4  
     e(  5 -  5) =    -22.48539  eV     1   --> A_1  D_1  S_1  
     e(  6 -  6) =     -7.86810  eV     1   --> A_1  D_1  S_1  
     e(  7 -  7) =     -6.60880  eV     1   --> B_1  D_3  S_3  
     e(  8 -  8) =     -6.53494  eV     1   --> A_1  D_1  S_1  
     e(  9 -  9) =     -4.47217  eV     1   --> B_2  D_4  S_4  
     e( 10 - 10) =     -4.42978  eV     1   --> B_1  D_3  S_3  
     e( 11 - 11) =     -4.35478  eV     1   --> A_1  D_1  S_1  
     e( 12 - 12) =      6.03005  eV     1   --> A_1  D_1  S_1  
     e( 13 - 13) =      6.24793  eV     1   --> B_1  D_3  S_3  
     e( 14 - 14) =      6.37468  eV     1   --> B_2  D_4  S_4  
     e( 15 - 15) =      7.92126  eV     1   --> A_1  D_1  S_1  
     e( 16 - 16) =      8.19524  eV     1   --> A_2  D_2  S_2  
     e( 17 - 17) =      8.76292  eV     1   --> A_1  D_1  S_1  
     e( 18 - 18) =      8.77407  eV     1   --> B_1  D_3  S_3  
     e( 19 - 19) =      8.89577  eV     1   --> B_2  D_4  S_4  
     e( 20 - 20) =      9.05277  eV     1   --> B_1  D_3  S_3  
     e( 21 - 21) =     10.04857  eV     1   --> A_2  D_2  S_2  
     e( 22 - 22) =     10.06713  eV     1   --> B_2  D_4  S_4  
     e( 23 - 23) =     10.18105  eV     1   --> A_1  D_1  S_1  
     e( 24 - 24) =     11.28209  eV     1   --> A_1  D_1  S_1  
     e( 25 - 25) =     11.85769  eV     1   --> B_1  D_3  S_3  
     e( 26 - 26) =     16.17810  eV     1   -->   ?

 **************************************************************************

 **************************************************************************

                    xk=(   0.10000,   0.10000,   0.00000  )

     Band symmetry, C_2v (mm2)  point group:

     e(  1 -  1) =    -69.45837  eV     1   --> A_1  D_1  S_1  
     e(  2 -  3) =    -38.16463  eV     2   --> A_1  D_1  S_1  
     e(  2 -  3) =    -38.16463  eV     2   --> B_1  D_3  S_3  
     e(  4 -  4) =    -38.16407  eV     1   --> B_2  D_4  S_4  
     e(  5 -  5) =    -22.48809  eV     1   --> A_1  D_1  S_1  
     e(  6 -  6) =     -7.87638  eV     1   --> A_1  D_1  S_1  
     e(  7 -  7) =     -6.57994  eV     1   --> B_1  D_3  S_3  
     e(  8 -  8) =     -6.53306  eV     1   --> A_1  D_1  S_1  
     e(  9 -  9) =     -4.47845  eV     1   --> B_2  D_4  S_4  
     e( 10 - 10) =     -4.45003  eV     1   --> B_1  D_3  S_3  
     e( 11 - 11) =     -4.39690  eV     1   --> A_1  D_1  S_1  
     e( 12 - 12) =      6.14194  eV     1   --> A_1  D_1  S_1  
     e( 13 - 13) =      6.29392  eV     1   --> B_1  D_3  S_3  
     e( 14 - 14) =      6.37167  eV     1   --> B_2  D_4  S_4  
     e( 15 - 15) =      8.16652  eV     1   --> A_1  D_1  S_1  
     e( 16 - 16) =      8.34829  eV     1   --> A_2  D_2  S_2  
     e( 17 - 17) =      8.77892  eV     1   --> B_1  D_3  S_3  
     e( 18 - 18) =      8.93013  eV     1   --> A_1  D_1  S_1  
     e( 19 - 19) =      9.01582  eV     1   --> B_2  D_4  S_4  
     e( 20 - 20) =      9.14304  eV     1   --> B_1  D_3  S_3  
     e( 21 - 21) =      9.90860  eV     1   --> A_2  D_2  S_2  
     e( 22 - 22) =      9.95195  eV     1   --> B_2  D_4  S_4  
     e( 23 - 23) =     10.04343  eV     1   --> A_1  D_1  S_1  
     e( 24 - 24) =     11.20127  eV     1   --> A_1  D_1  S_1  
     e( 25 - 25) =     11.60109  eV     1   --> B_1  D_3  S_3  
     e( 26 - 26) =     16.01453  eV     1   -->   ?

 **************************************************************************

 **************************************************************************

                    xk=(   0.07500,   0.07500,   0.00000  )

     Band symmetry, C_2v (mm2)  point group:

     e(  1 -  1) =    -69.45841  eV     1   --> A_1  D_1  S_1  
     e(  2 -  3) =    -38.16442  eV     2   --> A_1  D_1  S_1  
     e(  2 -  3) =    -38.16442  eV     2   --> B_1  D_3  S_3  
     e(  4 -  4) =    -38.16410  eV     1   --> B_2  D_4  S_4  
     e(  5 -  5) =    -22.49029  eV     1   --> A_1  D_1  S_1  
     e(  6 -  6) =     -7.88204  eV     1   --> A_1  D_1  S_1  
     e(  7 -  7) =     -6.55618  eV     1   --> B_1  D_3  S_3  
     e(  8 -  8) =     -6.53013  eV     1   --> A_1  D_1  S_1  
     e(  9 -  9) =     -4.48350  eV     1   --> B_2  D_4  S_4  
     e( 10 - 10) =     -4.46691  eV     1   --> B_1  D_3  S_3  
     e( 11 - 11) =     -4.43455  eV     1   --> A_1  D_1  S_1  
     e( 12 - 12) =      6.23643  eV     1   --> A_1  D_1  S_1  
     e( 13 - 13) =      6.32806  eV     1   --> B_1  D_3  S_3  
     e( 14 - 14) =      6.37002  eV     1   --> B_2  D_4  S_4  
     e( 15 - 15) =      8.39090  eV     1   --> A_1  D_1  S_1  
     e( 16 - 16) =      8.49656  eV     1   --> A_2  D_2  S_2  
     e( 17 - 17) =      8.77754  eV     1   --> B_1  D_3  S_3  
     e( 18 - 18) =      9.09178  eV     1   --> A_1  D_1  S_1  
     e( 19 - 19) =      9.13463  eV     1   --> B_2  D_4  S_4  
     e( 20 - 20) =      9.25110  eV     1   --> B_1  D_3  S_3  
     e( 21 - 21) =      9.77060  eV     1   --> A_2  D_2  S_2  
     e( 22 - 22) =      9.83631  eV     1   --> B_2  D_4  S_4  
     e( 23 - 23) =      9.90079  eV     1   --> A_1  D_1  S_1  
     e( 24 - 24) =     11.12505  eV     1   --> A_1  D_1  S_1  
     e( 25 - 25) =     11.37004  eV     1   --> B_1  D_3  S_3  
     e( 26 - 26) =     15.87551  eV     1   -->   ?

 **************************************************************************

 **************************************************************************

                    xk=(   0.05000,   0.05000,   0.00000  )

     Band symmetry, C_2v (mm2)  point group:

     e(  1 -  1) =    -69.45841  eV     1   --> A_1  D_1  S_1  
     e(  2 -  3) =    -38.16426  eV     2   --> A_1  D_1  S_1  
     e(  2 -  3) =    -38.16426  eV     2   --> B_1  D_3  S_3  
     e(  4 -  4) =    -38.16411  eV     1   --> B_2  D_4  S_4  
     e(  5 -  5) =    -22.49191  eV     1   --> A_1  D_1  S_1  
     e(  6 -  6) =     -7.88567  eV     1   --> A_1  D_1  S_1  
     e(  7 -  7) =     -6.53843  eV     1   --> B_1  D_3  S_3  
     e(  8 -  8) =     -6.52699  eV     1   --> A_1  D_1  S_1  
     e(  9 -  9) =     -4.48718  eV     1   --> B_2  D_4  S_4  
     e( 10 - 10) =     -4.47960  eV     1   --> B_1  D_3  S_3  
     e( 11 - 11) =     -4.46438  eV     1   --> A_1  D_1  S_1  
     e( 12 - 12) =      6.30843  eV     1   --> A_1  D_1  S_1  
     e( 13 - 13) =      6.35127  eV     1   --> B_1  D_3  S_3  
     e( 14 - 14) =      6.36929  eV     1   --> B_2  D_4  S_4  
     e( 15 - 15) =      8.58304  eV     1   --> A_1  D_1  S_1  
     e( 16 - 16) =      8.63101  eV     1   --> A_2  D_2  S_2  
     e( 17 - 17) =      8.77568  eV     1   --> B_1  D_3  S_3  
     e( 18 - 18) =      9.23801  eV     1   --> A_1  D_1  S_1  
     e( 19 - 19) =      9.25228  eV     1   --> B_2  D_4  S_4  
     e( 20 - 20) =      9.35657  eV     1   --> B_1  D_3  S_3  
     e( 21 - 21) =      9.64380  eV     1   --> A_2  D_2  S_2  
     e( 22 - 22) =      9.72053  eV     1   --> B_2  D_4  S_4  
     e( 23 - 23) =      9.75662  eV     1   --> A_1  D_1  S_1  
     e( 24 - 24) =     11.06043  eV     1   --> A_1  D_1  S_1  
     e( 25 - 25) =     11.17866  eV     1   --> B_1  D_3  S_3  
     e( 26 - 26) =     15.77032  eV     1   -->   ?

 **************************************************************************

 **************************************************************************

                    xk=(   0.02500,   0.02500,   0.00000  )

     Band symmetry, C_2v (mm2)  point group:

     e(  1 -  1) =    -69.45841  eV     1   --> A_1  D_1  S_1  
     e(  2 -  4) =    -38.16416  eV     3   --> A_1  D_1  S_1  
     e(  2 -  4) =    -38.16416  eV     3   --> B_1  D_3  S_3  
     e(  2 -  4) =    -38.16416  eV     3   --> B_2  D_4  S_4  
     e(  5 -  5) =    -22.49289  eV     1   --> A_1  D_1  S_1  
     e(  6 -  6) =     -7.88768  eV     1   --> A_1  D_1  S_1  
     e(  7 -  7) =     -6.52745  eV     1   --> B_1  D_3  S_3  
     e(  8 -  8) =     -6.52461  eV     1   --> A_1  D_1  S_1  
     e(  9 -  9) =     -4.48942  eV     1   --> B_2  D_4  S_4  
     e( 10 - 10) =     -4.48750  eV     1   --> B_1  D_3  S_3  
     e( 11 - 11) =     -4.48354  eV     1   --> A_1  D_1  S_1  
     e( 12 - 12) =      6.35357  eV     1   --> A_1  D_1  S_1  
     e( 13 - 13) =      6.36463  eV     1   --> B_1  D_3  S_3  
     e( 14 - 14) =      6.36902  eV     1   --> B_2  D_4  S_4  
     e( 15 - 15) =      8.72169  eV     1   --> A_1  D_1  S_1  
     e( 16 - 16) =      8.73358  eV     1   --> A_2  D_2  S_2  
     e( 17 - 17) =      8.77458  eV     1   --> B_1  D_3  S_3  
     e( 18 - 18) =      9.36530  eV     1   --> A_1  D_1  S_1  
     e( 19 - 19) =      9.36872  eV     1   --> B_2  D_4  S_4  
     e( 20 - 20) =      9.43663  eV     1   --> B_1  D_3  S_3  
     e( 21 - 21) =      9.54584  eV     1   --> A_2  D_2  S_2  
     e( 22 - 22) =      9.60514  eV     1   --> B_2  D_4  S_4  
     e( 23 - 23) =      9.61729  eV     1   --> A_1  D_1  S_1  
     e( 24 - 24) =     11.01603  eV     1   --> A_1  D_1  S_1  
     e( 25 - 25) =     11.04758  eV     1   --> B_1  D_3  S_3  
     e( 26 - 26) =     15.70460  eV     1   -->   ?

 **************************************************************************

 **************************************************************************

                    xk=(   0.00000,   0.00000,   0.00000  )

     point group O_h (m-3m) 
     there are 10 classes
     the character table:

       E     8C3   3C2   6C4   6C2'  i     8S6   3s_h  6S4   6s_d 
A_1g   1.00  1.00  1.00  1.00  1.00  1.00  1.00  1.00  1.00  1.00
A_2g   1.00  1.00  1.00 -1.00 -1.00  1.00  1.00  1.00 -1.00 -1.00
E_g    2.00 -1.00  2.00  0.00  0.00  2.00 -1.00  2.00  0.00  0.00
T_1g   3.00  0.00 -1.00  1.00 -1.00  3.00  0.00 -1.00  1.00 -1.00
T_2g   3.00  0.00 -1.00 -1.00  1.00  3.00  0.00 -1.00 -1.00  1.00
A_1u   1.00  1.00  1.00  1.00  1.00 -1.00 -1.00 -1.00 -1.00 -1.00
A_2u   1.00  1.00  1.00 -1.00 -1.00 -1.00 -1.00 -1.00  1.00  1.00
E_u    2.00 -1.00  2.00  0.00  0.00 -2.00  1.00 -2.00  0.00  0.00
T_1u   3.00  0.00 -1.00  1.00 -1.00 -3.00  0.00  1.00 -1.00  1.00
T_2u   3.00  0.00 -1.00 -1.00  1.00 -3.00  0.00  1.00  1.00 -1.00

     the symmetry operations in each class and the name of the first element:

     E        1
                                                                 
     8C3     17   19   20   18   24   21   22   23
                                                                 
     3C2      2    4    3
                                                                 
     6C4      7    8   15   16   12   11
                                                                 
     6C2'     5    6   14   13   10    9
                                                                 
     i       25
                                                                 
     8S6     41   43   44   42   48   45   46   47
                                                                 
     3s_h    26   28   27
                                                                 
     6S4     31   32   39   40   36   35
                                                                 
     6s_d    29   30   38   37   34   33
                                                                 

     Band symmetry, O_h (m-3m)  point group:

     e(  1 -  1) =    -69.45847  eV     1   --> A_1g G_1   G_1+
     e(  2 -  4) =    -38.16413  eV     3   --> T_1u G_15  G_4-
     e(  5 -  5) =    -22.49325  eV     1   --> A_1g G_1   G_1+
     e(  6 -  6) =     -7.88834  eV     1   --> A_1g G_1   G_1+
     e(  7 -  8) =     -6.52375  eV     2   --> E_g  G_12  G_3+
     e(  9 - 11) =     -4.49020  eV     3   --> T_1u G_15  G_4-
     e( 12 - 14) =      6.36888  eV     3   --> T_1u G_15  G_4-
     e( 15 - 17) =      8.77414  eV     3   --> T_2u G_25  G_5-
     e( 18 - 20) =      9.46717  eV     3   --> T_1u G_15  G_4-
     e( 21 - 23) =      9.50670  eV     3   --> T_2g G_25' G_5+
     e( 24 - 25) =     10.99987  eV     2   --> E_g  G_12  G_3+
     e( 26 - 26) =     15.68265  eV     1   -->   ?

 **************************************************************************

     BANDS        :     16.46s CPU     18.78s WALL


   This run was terminated on:  14:11:58  25Sep2023            

=------------------------------------------------------------------------------=
   JOB DONE.
=------------------------------------------------------------------------------=
