
     Program PWSCF v.7.1 starts on 25Sep2023 at 14:11:28 

     This program is part of the open-source Quantum ESPRESSO suite
     for quantum simulation of materials; please cite
         "P. Giannozzi et al., J. Phys.:Condens. Matter 21 395502 (2009);
         "P. Giannozzi et al., J. Phys.:Condens. Matter 29 465901 (2017);
         "P. Giannozzi et al., J. Chem. Phys. 152 154105 (2020);
          URL http://www.quantum-espresso.org", 
     in publications or presentations arising from this work. More details at
     http://www.quantum-espresso.org/quote

     Parallel version (MPI & OpenMP), running on      10 processor cores
     Number of MPI processes:                10
     Threads/MPI process:                     1

     MPI processes distributed on     1 nodes
     11182 MiB available memory on the printing compute node when the environment starts

     Waiting for input...
     Reading input from standard input

     Current dimensions of program PWSCF are:
     Max number of different atomic species (ntypx) = 10
     Max number of k-points (npk) =  40000
     Max angular momentum in pseudopotentials (lmaxx) =  4

     Atomic positions and unit cell read from directory:
     ./work/pwscf.save/

     file Mn.pbe-spn-kjpaw_psl.1.0.0.UPF: wavefunction(s)  3S 4S 3P 3D renormalized
     file O.pbe-n-kjpaw_psl.1.0.0.UPF: wavefunction(s)  2S 2P renormalized
     file Sr.pbe-spn-kjpaw_psl.1.0.0.UPF: wavefunction(s)  4P renormalized
     Message from routine setup:
     using ibrav=0 with symmetry is DISCOURAGED, use correct ibrav instead

     R & G space division:  proc/nbgrp/npool/nimage =      10
     Subspace diagonalization in iterative solution of the eigenvalue problem:
     a serial algorithm will be used


     Parallelization info
     --------------------
     sticks:   dense  smooth     PW     G-vecs:    dense   smooth      PW
     Min         297      97     29                12295     2273     377
     Max         299      98     30                12298     2276     380
     Sum        2981     973    293               122969    22743    3791

     Using Slab Decomposition



     bravais-lattice index     =            0
     lattice parameter (alat)  =       7.3114  a.u.
     unit-cell volume          =     390.8374 (a.u.)^3
     number of atoms/cell      =            5
     number of atomic types    =            3
     number of electrons       =        43.00
     number of Kohn-Sham states=           26
     kinetic-energy cutoff     =      57.0000  Ry
     charge density cutoff     =     702.0000  Ry
     Exchange-correlation= SLA  PW   PBX  PBC
                           (   1   4   3   4   0   0   0)

     celldm(1)=   7.311369  celldm(2)=   0.000000  celldm(3)=   0.000000
     celldm(4)=   0.000000  celldm(5)=   0.000000  celldm(6)=   0.000000

     crystal axes: (cart. coord. in units of alat)
               a(1) = (   1.000000   0.000000   0.000000 )  
               a(2) = (   0.000000   1.000000   0.000000 )  
               a(3) = (   0.000000   0.000000   1.000000 )  

     reciprocal axes: (cart. coord. in units 2 pi/alat)
               b(1) = (  1.000000  0.000000  0.000000 )  
               b(2) = (  0.000000  1.000000  0.000000 )  
               b(3) = (  0.000000  0.000000  1.000000 )  


     PseudoPot. # 1 for Mn read from file:
     ./../../pseudo/psl100_PBE/Mn.pbe-spn-kjpaw_psl.1.0.0.UPF
     MD5 check sum: f35d27efadedf4eecb7b20e8deb5678d
     Pseudo is Projector augmented-wave + core cor, Zval = 15.0
     Generated using 'atomic' code by A. Dal Corso  v.7.2
     Shape of augmentation charge: PSQ
     Using radial grid of 1187 points,  6 beta functions with: 
                l(1) =   0
                l(2) =   0
                l(3) =   1
                l(4) =   1
                l(5) =   2
                l(6) =   2
     Q(r) pseudized with 0 coefficients 


     PseudoPot. # 2 for O  read from file:
     ./../../pseudo/psl100_PBE/O.pbe-n-kjpaw_psl.1.0.0.UPF
     MD5 check sum: eca5c60c16f5a4fc86cb100254d05a93
     Pseudo is Projector augmented-wave + core cor, Zval =  6.0
     Generated using 'atomic' code by A. Dal Corso  v.7.2
     Shape of augmentation charge: PSQ
     Using radial grid of 1095 points,  4 beta functions with: 
                l(1) =   0
                l(2) =   0
                l(3) =   1
                l(4) =   1
     Q(r) pseudized with 0 coefficients 


     PseudoPot. # 3 for Sr read from file:
     ./../../pseudo/psl100_PBE/Sr.pbe-spn-kjpaw_psl.1.0.0.UPF
     MD5 check sum: 0afa415ff111c26dfdea74d82c25ad94
     Pseudo is Projector augmented-wave + core cor, Zval = 10.0
     Generated using 'atomic' code by A. Dal Corso  v.7.2
     Shape of augmentation charge: PSQ
     Using radial grid of 1221 points,  6 beta functions with: 
                l(1) =   0
                l(2) =   0
                l(3) =   1
                l(4) =   1
                l(5) =   2
                l(6) =   2
     Q(r) pseudized with 0 coefficients 


     atomic species   valence    mass     pseudopotential
        Mn            15.00    54.93800     Mn( 1.00)
        O              6.00    15.99900     O ( 1.00)
        Sr            10.00    87.62000     Sr( 1.00)

     48 Sym. Ops., with inversion, found


                                    s                        frac. trans.

      isym =  1     identity                                     

 cryst.   s( 1) = (     1          0          0      )
                  (     0          1          0      )
                  (     0          0          1      )

 cart.    s( 1) = (  1.0000000  0.0000000  0.0000000 )
                  (  0.0000000  1.0000000  0.0000000 )
                  (  0.0000000  0.0000000  1.0000000 )


      isym =  2     180 deg rotation - cart. axis [0,0,1]        

 cryst.   s( 2) = (    -1          0          0      )
                  (     0         -1          0      )
                  (     0          0          1      )

 cart.    s( 2) = ( -1.0000000  0.0000000  0.0000000 )
                  (  0.0000000 -1.0000000  0.0000000 )
                  (  0.0000000  0.0000000  1.0000000 )


      isym =  3     180 deg rotation - cart. axis [0,1,0]        

 cryst.   s( 3) = (    -1          0          0      )
                  (     0          1          0      )
                  (     0          0         -1      )

 cart.    s( 3) = ( -1.0000000  0.0000000  0.0000000 )
                  (  0.0000000  1.0000000  0.0000000 )
                  (  0.0000000  0.0000000 -1.0000000 )


      isym =  4     180 deg rotation - cart. axis [1,0,0]        

 cryst.   s( 4) = (     1          0          0      )
                  (     0         -1          0      )
                  (     0          0         -1      )

 cart.    s( 4) = (  1.0000000  0.0000000  0.0000000 )
                  (  0.0000000 -1.0000000  0.0000000 )
                  (  0.0000000  0.0000000 -1.0000000 )


      isym =  5     180 deg rotation - cart. axis [1,1,0]        

 cryst.   s( 5) = (     0          1          0      )
                  (     1          0          0      )
                  (     0          0         -1      )

 cart.    s( 5) = (  0.0000000  1.0000000  0.0000000 )
                  (  1.0000000  0.0000000  0.0000000 )
                  (  0.0000000  0.0000000 -1.0000000 )


      isym =  6     180 deg rotation - cart. axis [1,-1,0]       

 cryst.   s( 6) = (     0         -1          0      )
                  (    -1          0          0      )
                  (     0          0         -1      )

 cart.    s( 6) = (  0.0000000 -1.0000000  0.0000000 )
                  ( -1.0000000  0.0000000  0.0000000 )
                  (  0.0000000  0.0000000 -1.0000000 )


      isym =  7      90 deg rotation - cart. axis [0,0,-1]       

 cryst.   s( 7) = (     0         -1          0      )
                  (     1          0          0      )
                  (     0          0          1      )

 cart.    s( 7) = (  0.0000000  1.0000000  0.0000000 )
                  ( -1.0000000  0.0000000  0.0000000 )
                  (  0.0000000  0.0000000  1.0000000 )


      isym =  8      90 deg rotation - cart. axis [0,0,1]        

 cryst.   s( 8) = (     0          1          0      )
                  (    -1          0          0      )
                  (     0          0          1      )

 cart.    s( 8) = (  0.0000000 -1.0000000  0.0000000 )
                  (  1.0000000  0.0000000  0.0000000 )
                  (  0.0000000  0.0000000  1.0000000 )


      isym =  9     180 deg rotation - cart. axis [1,0,1]        

 cryst.   s( 9) = (     0          0          1      )
                  (     0         -1          0      )
                  (     1          0          0      )

 cart.    s( 9) = (  0.0000000  0.0000000  1.0000000 )
                  (  0.0000000 -1.0000000  0.0000000 )
                  (  1.0000000  0.0000000  0.0000000 )


      isym = 10     180 deg rotation - cart. axis [-1,0,1]       

 cryst.   s(10) = (     0          0         -1      )
                  (     0         -1          0      )
                  (    -1          0          0      )

 cart.    s(10) = (  0.0000000  0.0000000 -1.0000000 )
                  (  0.0000000 -1.0000000  0.0000000 )
                  ( -1.0000000  0.0000000  0.0000000 )


      isym = 11      90 deg rotation - cart. axis [0,1,0]        

 cryst.   s(11) = (     0          0         -1      )
                  (     0          1          0      )
                  (     1          0          0      )

 cart.    s(11) = (  0.0000000  0.0000000  1.0000000 )
                  (  0.0000000  1.0000000  0.0000000 )
                  ( -1.0000000  0.0000000  0.0000000 )


      isym = 12      90 deg rotation - cart. axis [0,-1,0]       

 cryst.   s(12) = (     0          0          1      )
                  (     0          1          0      )
                  (    -1          0          0      )

 cart.    s(12) = (  0.0000000  0.0000000 -1.0000000 )
                  (  0.0000000  1.0000000  0.0000000 )
                  (  1.0000000  0.0000000  0.0000000 )


      isym = 13     180 deg rotation - cart. axis [0,1,1]        

 cryst.   s(13) = (    -1          0          0      )
                  (     0          0          1      )
                  (     0          1          0      )

 cart.    s(13) = ( -1.0000000  0.0000000  0.0000000 )
                  (  0.0000000  0.0000000  1.0000000 )
                  (  0.0000000  1.0000000  0.0000000 )


      isym = 14     180 deg rotation - cart. axis [0,1,-1]       

 cryst.   s(14) = (    -1          0          0      )
                  (     0          0         -1      )
                  (     0         -1          0      )

 cart.    s(14) = ( -1.0000000  0.0000000  0.0000000 )
                  (  0.0000000  0.0000000 -1.0000000 )
                  (  0.0000000 -1.0000000  0.0000000 )


      isym = 15      90 deg rotation - cart. axis [-1,0,0]       

 cryst.   s(15) = (     1          0          0      )
                  (     0          0         -1      )
                  (     0          1          0      )

 cart.    s(15) = (  1.0000000  0.0000000  0.0000000 )
                  (  0.0000000  0.0000000  1.0000000 )
                  (  0.0000000 -1.0000000  0.0000000 )


      isym = 16      90 deg rotation - cart. axis [1,0,0]        

 cryst.   s(16) = (     1          0          0      )
                  (     0          0          1      )
                  (     0         -1          0      )

 cart.    s(16) = (  1.0000000  0.0000000  0.0000000 )
                  (  0.0000000  0.0000000 -1.0000000 )
                  (  0.0000000  1.0000000  0.0000000 )


      isym = 17     120 deg rotation - cart. axis [-1,-1,-1]     

 cryst.   s(17) = (     0          0          1      )
                  (     1          0          0      )
                  (     0          1          0      )

 cart.    s(17) = (  0.0000000  1.0000000  0.0000000 )
                  (  0.0000000  0.0000000  1.0000000 )
                  (  1.0000000  0.0000000  0.0000000 )


      isym = 18     120 deg rotation - cart. axis [-1,1,1]       

 cryst.   s(18) = (     0          0         -1      )
                  (    -1          0          0      )
                  (     0          1          0      )

 cart.    s(18) = (  0.0000000 -1.0000000  0.0000000 )
                  (  0.0000000  0.0000000  1.0000000 )
                  ( -1.0000000  0.0000000  0.0000000 )


      isym = 19     120 deg rotation - cart. axis [1,1,-1]       

 cryst.   s(19) = (     0          0         -1      )
                  (     1          0          0      )
                  (     0         -1          0      )

 cart.    s(19) = (  0.0000000  1.0000000  0.0000000 )
                  (  0.0000000  0.0000000 -1.0000000 )
                  ( -1.0000000  0.0000000  0.0000000 )


      isym = 20     120 deg rotation - cart. axis [1,-1,1]       

 cryst.   s(20) = (     0          0          1      )
                  (    -1          0          0      )
                  (     0         -1          0      )

 cart.    s(20) = (  0.0000000 -1.0000000  0.0000000 )
                  (  0.0000000  0.0000000 -1.0000000 )
                  (  1.0000000  0.0000000  0.0000000 )


      isym = 21     120 deg rotation - cart. axis [1,1,1]        

 cryst.   s(21) = (     0          1          0      )
                  (     0          0          1      )
                  (     1          0          0      )

 cart.    s(21) = (  0.0000000  0.0000000  1.0000000 )
                  (  1.0000000  0.0000000  0.0000000 )
                  (  0.0000000  1.0000000  0.0000000 )


      isym = 22     120 deg rotation - cart. axis [-1,1,-1]      

 cryst.   s(22) = (     0         -1          0      )
                  (     0          0         -1      )
                  (     1          0          0      )

 cart.    s(22) = (  0.0000000  0.0000000  1.0000000 )
                  ( -1.0000000  0.0000000  0.0000000 )
                  (  0.0000000 -1.0000000  0.0000000 )


      isym = 23     120 deg rotation - cart. axis [1,-1,-1]      

 cryst.   s(23) = (     0         -1          0      )
                  (     0          0          1      )
                  (    -1          0          0      )

 cart.    s(23) = (  0.0000000  0.0000000 -1.0000000 )
                  ( -1.0000000  0.0000000  0.0000000 )
                  (  0.0000000  1.0000000  0.0000000 )


      isym = 24     120 deg rotation - cart. axis [-1,-1,1]      

 cryst.   s(24) = (     0          1          0      )
                  (     0          0         -1      )
                  (    -1          0          0      )

 cart.    s(24) = (  0.0000000  0.0000000 -1.0000000 )
                  (  1.0000000  0.0000000  0.0000000 )
                  (  0.0000000 -1.0000000  0.0000000 )


      isym = 25     inversion                                    

 cryst.   s(25) = (    -1          0          0      )
                  (     0         -1          0      )
                  (     0          0         -1      )

 cart.    s(25) = ( -1.0000000  0.0000000  0.0000000 )
                  (  0.0000000 -1.0000000  0.0000000 )
                  (  0.0000000  0.0000000 -1.0000000 )


      isym = 26     inv. 180 deg rotation - cart. axis [0,0,1]   

 cryst.   s(26) = (     1          0          0      )
                  (     0          1          0      )
                  (     0          0         -1      )

 cart.    s(26) = (  1.0000000  0.0000000  0.0000000 )
                  (  0.0000000  1.0000000  0.0000000 )
                  (  0.0000000  0.0000000 -1.0000000 )


      isym = 27     inv. 180 deg rotation - cart. axis [0,1,0]   

 cryst.   s(27) = (     1          0          0      )
                  (     0         -1          0      )
                  (     0          0          1      )

 cart.    s(27) = (  1.0000000  0.0000000  0.0000000 )
                  (  0.0000000 -1.0000000  0.0000000 )
                  (  0.0000000  0.0000000  1.0000000 )


      isym = 28     inv. 180 deg rotation - cart. axis [1,0,0]   

 cryst.   s(28) = (    -1          0          0      )
                  (     0          1          0      )
                  (     0          0          1      )

 cart.    s(28) = ( -1.0000000  0.0000000  0.0000000 )
                  (  0.0000000  1.0000000  0.0000000 )
                  (  0.0000000  0.0000000  1.0000000 )


      isym = 29     inv. 180 deg rotation - cart. axis [1,1,0]   

 cryst.   s(29) = (     0         -1          0      )
                  (    -1          0          0      )
                  (     0          0          1      )

 cart.    s(29) = (  0.0000000 -1.0000000  0.0000000 )
                  ( -1.0000000  0.0000000  0.0000000 )
                  (  0.0000000  0.0000000  1.0000000 )


      isym = 30     inv. 180 deg rotation - cart. axis [1,-1,0]  

 cryst.   s(30) = (     0          1          0      )
                  (     1          0          0      )
                  (     0          0          1      )

 cart.    s(30) = (  0.0000000  1.0000000  0.0000000 )
                  (  1.0000000  0.0000000  0.0000000 )
                  (  0.0000000  0.0000000  1.0000000 )


      isym = 31     inv.  90 deg rotation - cart. axis [0,0,-1]  

 cryst.   s(31) = (     0          1          0      )
                  (    -1          0          0      )
                  (     0          0         -1      )

 cart.    s(31) = (  0.0000000 -1.0000000  0.0000000 )
                  (  1.0000000  0.0000000  0.0000000 )
                  (  0.0000000  0.0000000 -1.0000000 )


      isym = 32     inv.  90 deg rotation - cart. axis [0,0,1]   

 cryst.   s(32) = (     0         -1          0      )
                  (     1          0          0      )
                  (     0          0         -1      )

 cart.    s(32) = (  0.0000000  1.0000000  0.0000000 )
                  ( -1.0000000  0.0000000  0.0000000 )
                  (  0.0000000  0.0000000 -1.0000000 )


      isym = 33     inv. 180 deg rotation - cart. axis [1,0,1]   

 cryst.   s(33) = (     0          0         -1      )
                  (     0          1          0      )
                  (    -1          0          0      )

 cart.    s(33) = (  0.0000000  0.0000000 -1.0000000 )
                  (  0.0000000  1.0000000  0.0000000 )
                  ( -1.0000000  0.0000000  0.0000000 )


      isym = 34     inv. 180 deg rotation - cart. axis [-1,0,1]  

 cryst.   s(34) = (     0          0          1      )
                  (     0          1          0      )
                  (     1          0          0      )

 cart.    s(34) = (  0.0000000  0.0000000  1.0000000 )
                  (  0.0000000  1.0000000  0.0000000 )
                  (  1.0000000  0.0000000  0.0000000 )


      isym = 35     inv.  90 deg rotation - cart. axis [0,1,0]   

 cryst.   s(35) = (     0          0          1      )
                  (     0         -1          0      )
                  (    -1          0          0      )

 cart.    s(35) = (  0.0000000  0.0000000 -1.0000000 )
                  (  0.0000000 -1.0000000  0.0000000 )
                  (  1.0000000  0.0000000  0.0000000 )


      isym = 36     inv.  90 deg rotation - cart. axis [0,-1,0]  

 cryst.   s(36) = (     0          0         -1      )
                  (     0         -1          0      )
                  (     1          0          0      )

 cart.    s(36) = (  0.0000000  0.0000000  1.0000000 )
                  (  0.0000000 -1.0000000  0.0000000 )
                  ( -1.0000000  0.0000000  0.0000000 )


      isym = 37     inv. 180 deg rotation - cart. axis [0,1,1]   

 cryst.   s(37) = (     1          0          0      )
                  (     0          0         -1      )
                  (     0         -1          0      )

 cart.    s(37) = (  1.0000000  0.0000000  0.0000000 )
                  (  0.0000000  0.0000000 -1.0000000 )
                  (  0.0000000 -1.0000000  0.0000000 )


      isym = 38     inv. 180 deg rotation - cart. axis [0,1,-1]  

 cryst.   s(38) = (     1          0          0      )
                  (     0          0          1      )
                  (     0          1          0      )

 cart.    s(38) = (  1.0000000  0.0000000  0.0000000 )
                  (  0.0000000  0.0000000  1.0000000 )
                  (  0.0000000  1.0000000  0.0000000 )


      isym = 39     inv.  90 deg rotation - cart. axis [-1,0,0]  

 cryst.   s(39) = (    -1          0          0      )
                  (     0          0          1      )
                  (     0         -1          0      )

 cart.    s(39) = ( -1.0000000  0.0000000  0.0000000 )
                  (  0.0000000  0.0000000 -1.0000000 )
                  (  0.0000000  1.0000000  0.0000000 )


      isym = 40     inv.  90 deg rotation - cart. axis [1,0,0]   

 cryst.   s(40) = (    -1          0          0      )
                  (     0          0         -1      )
                  (     0          1          0      )

 cart.    s(40) = ( -1.0000000  0.0000000  0.0000000 )
                  (  0.0000000  0.0000000  1.0000000 )
                  (  0.0000000 -1.0000000  0.0000000 )


      isym = 41     inv. 120 deg rotation - cart. axis [-1,-1,-1]

 cryst.   s(41) = (     0          0         -1      )
                  (    -1          0          0      )
                  (     0         -1          0      )

 cart.    s(41) = (  0.0000000 -1.0000000  0.0000000 )
                  (  0.0000000  0.0000000 -1.0000000 )
                  ( -1.0000000  0.0000000  0.0000000 )


      isym = 42     inv. 120 deg rotation - cart. axis [-1,1,1]  

 cryst.   s(42) = (     0          0          1      )
                  (     1          0          0      )
                  (     0         -1          0      )

 cart.    s(42) = (  0.0000000  1.0000000  0.0000000 )
                  (  0.0000000  0.0000000 -1.0000000 )
                  (  1.0000000  0.0000000  0.0000000 )


      isym = 43     inv. 120 deg rotation - cart. axis [1,1,-1]  

 cryst.   s(43) = (     0          0          1      )
                  (    -1          0          0      )
                  (     0          1          0      )

 cart.    s(43) = (  0.0000000 -1.0000000  0.0000000 )
                  (  0.0000000  0.0000000  1.0000000 )
                  (  1.0000000  0.0000000  0.0000000 )


      isym = 44     inv. 120 deg rotation - cart. axis [1,-1,1]  

 cryst.   s(44) = (     0          0         -1      )
                  (     1          0          0      )
                  (     0          1          0      )

 cart.    s(44) = (  0.0000000  1.0000000  0.0000000 )
                  (  0.0000000  0.0000000  1.0000000 )
                  ( -1.0000000  0.0000000  0.0000000 )


      isym = 45     inv. 120 deg rotation - cart. axis [1,1,1]   

 cryst.   s(45) = (     0         -1          0      )
                  (     0          0         -1      )
                  (    -1          0          0      )

 cart.    s(45) = (  0.0000000  0.0000000 -1.0000000 )
                  ( -1.0000000  0.0000000  0.0000000 )
                  (  0.0000000 -1.0000000  0.0000000 )


      isym = 46     inv. 120 deg rotation - cart. axis [-1,1,-1] 

 cryst.   s(46) = (     0          1          0      )
                  (     0          0          1      )
                  (    -1          0          0      )

 cart.    s(46) = (  0.0000000  0.0000000 -1.0000000 )
                  (  1.0000000  0.0000000  0.0000000 )
                  (  0.0000000  1.0000000  0.0000000 )


      isym = 47     inv. 120 deg rotation - cart. axis [1,-1,-1] 

 cryst.   s(47) = (     0          1          0      )
                  (     0          0         -1      )
                  (     1          0          0      )

 cart.    s(47) = (  0.0000000  0.0000000  1.0000000 )
                  (  1.0000000  0.0000000  0.0000000 )
                  (  0.0000000 -1.0000000  0.0000000 )


      isym = 48     inv. 120 deg rotation - cart. axis [-1,-1,1] 

 cryst.   s(48) = (     0         -1          0      )
                  (     0          0          1      )
                  (     1          0          0      )

 cart.    s(48) = (  0.0000000  0.0000000  1.0000000 )
                  ( -1.0000000  0.0000000  0.0000000 )
                  (  0.0000000  1.0000000  0.0000000 )


   Cartesian axes

     site n.     atom                  positions (alat units)
         1           Sr  tau(   1) = (   0.5000000   0.5000000   0.5000000  )
         2           Mn  tau(   2) = (   0.0000000   0.0000000   0.0000000  )
         3           O   tau(   3) = (   0.5000000   0.0000000   0.0000000  )
         4           O   tau(   4) = (   0.0000000   0.0000000   0.5000000  )
         5           O   tau(   5) = (   0.0000000   0.5000000   0.0000000  )

   Crystallographic axes

     site n.     atom                  positions (cryst. coord.)
         1           Sr  tau(   1) = (  0.5000000  0.5000000  0.5000000  )
         2           Mn  tau(   2) = (  0.0000000  0.0000000  0.0000000  )
         3           O   tau(   3) = (  0.5000000  0.0000000  0.0000000  )
         4           O   tau(   4) = (  0.0000000  0.0000000  0.5000000  )
         5           O   tau(   5) = (  0.0000000  0.5000000  0.0000000  )

     number of k points=    81  Methfessel-Paxton smearing, width (Ry)=  0.0100
                       cart. coord. in units 2pi/alat
        k(    1) = (   0.5000000   0.5000000   0.5000000), wk =   0.0246914
        k(    2) = (   0.4750000   0.4750000   0.4750000), wk =   0.0246914
        k(    3) = (   0.4500000   0.4500000   0.4500000), wk =   0.0246914
        k(    4) = (   0.4250000   0.4250000   0.4250000), wk =   0.0246914
        k(    5) = (   0.4000000   0.4000000   0.4000000), wk =   0.0246914
        k(    6) = (   0.3750000   0.3750000   0.3750000), wk =   0.0246914
        k(    7) = (   0.3500000   0.3500000   0.3500000), wk =   0.0246914
        k(    8) = (   0.3250000   0.3250000   0.3250000), wk =   0.0246914
        k(    9) = (   0.3000000   0.3000000   0.3000000), wk =   0.0246914
        k(   10) = (   0.2750000   0.2750000   0.2750000), wk =   0.0246914
        k(   11) = (   0.2500000   0.2500000   0.2500000), wk =   0.0246914
        k(   12) = (   0.2250000   0.2250000   0.2250000), wk =   0.0246914
        k(   13) = (   0.2000000   0.2000000   0.2000000), wk =   0.0246914
        k(   14) = (   0.1750000   0.1750000   0.1750000), wk =   0.0246914
        k(   15) = (   0.1500000   0.1500000   0.1500000), wk =   0.0246914
        k(   16) = (   0.1250000   0.1250000   0.1250000), wk =   0.0246914
        k(   17) = (   0.1000000   0.1000000   0.1000000), wk =   0.0246914
        k(   18) = (   0.0750000   0.0750000   0.0750000), wk =   0.0246914
        k(   19) = (   0.0500000   0.0500000   0.0500000), wk =   0.0246914
        k(   20) = (   0.0250000   0.0250000   0.0250000), wk =   0.0246914
        k(   21) = (   0.0000000   0.0000000   0.0000000), wk =   0.0246914
        k(   22) = (   0.0000000   0.0250000   0.0000000), wk =   0.0246914
        k(   23) = (   0.0000000   0.0500000   0.0000000), wk =   0.0246914
        k(   24) = (   0.0000000   0.0750000   0.0000000), wk =   0.0246914
        k(   25) = (   0.0000000   0.1000000   0.0000000), wk =   0.0246914
        k(   26) = (   0.0000000   0.1250000   0.0000000), wk =   0.0246914
        k(   27) = (   0.0000000   0.1500000   0.0000000), wk =   0.0246914
        k(   28) = (   0.0000000   0.1750000   0.0000000), wk =   0.0246914
        k(   29) = (   0.0000000   0.2000000   0.0000000), wk =   0.0246914
        k(   30) = (   0.0000000   0.2250000   0.0000000), wk =   0.0246914
        k(   31) = (   0.0000000   0.2500000   0.0000000), wk =   0.0246914
        k(   32) = (   0.0000000   0.2750000   0.0000000), wk =   0.0246914
        k(   33) = (   0.0000000   0.3000000   0.0000000), wk =   0.0246914
        k(   34) = (   0.0000000   0.3250000   0.0000000), wk =   0.0246914
        k(   35) = (   0.0000000   0.3500000   0.0000000), wk =   0.0246914
        k(   36) = (   0.0000000   0.3750000   0.0000000), wk =   0.0246914
        k(   37) = (   0.0000000   0.4000000   0.0000000), wk =   0.0246914
        k(   38) = (   0.0000000   0.4250000   0.0000000), wk =   0.0246914
        k(   39) = (   0.0000000   0.4500000   0.0000000), wk =   0.0246914
        k(   40) = (   0.0000000   0.4750000   0.0000000), wk =   0.0246914
        k(   41) = (   0.0000000   0.5000000   0.0000000), wk =   0.0246914
        k(   42) = (   0.0250000   0.5000000   0.0000000), wk =   0.0246914
        k(   43) = (   0.0500000   0.5000000   0.0000000), wk =   0.0246914
        k(   44) = (   0.0750000   0.5000000   0.0000000), wk =   0.0246914
        k(   45) = (   0.1000000   0.5000000   0.0000000), wk =   0.0246914
        k(   46) = (   0.1250000   0.5000000   0.0000000), wk =   0.0246914
        k(   47) = (   0.1500000   0.5000000   0.0000000), wk =   0.0246914
        k(   48) = (   0.1750000   0.5000000   0.0000000), wk =   0.0246914
        k(   49) = (   0.2000000   0.5000000   0.0000000), wk =   0.0246914
        k(   50) = (   0.2250000   0.5000000   0.0000000), wk =   0.0246914
        k(   51) = (   0.2500000   0.5000000   0.0000000), wk =   0.0246914
        k(   52) = (   0.2750000   0.5000000   0.0000000), wk =   0.0246914
        k(   53) = (   0.3000000   0.5000000   0.0000000), wk =   0.0246914
        k(   54) = (   0.3250000   0.5000000   0.0000000), wk =   0.0246914
        k(   55) = (   0.3500000   0.5000000   0.0000000), wk =   0.0246914
        k(   56) = (   0.3750000   0.5000000   0.0000000), wk =   0.0246914
        k(   57) = (   0.4000000   0.5000000   0.0000000), wk =   0.0246914
        k(   58) = (   0.4250000   0.5000000   0.0000000), wk =   0.0246914
        k(   59) = (   0.4500000   0.5000000   0.0000000), wk =   0.0246914
        k(   60) = (   0.4750000   0.5000000   0.0000000), wk =   0.0246914
        k(   61) = (   0.5000000   0.5000000   0.0000000), wk =   0.0246914
        k(   62) = (   0.4750000   0.4750000   0.0000000), wk =   0.0246914
        k(   63) = (   0.4500000   0.4500000   0.0000000), wk =   0.0246914
        k(   64) = (   0.4250000   0.4250000   0.0000000), wk =   0.0246914
        k(   65) = (   0.4000000   0.4000000   0.0000000), wk =   0.0246914
        k(   66) = (   0.3750000   0.3750000   0.0000000), wk =   0.0246914
        k(   67) = (   0.3500000   0.3500000   0.0000000), wk =   0.0246914
        k(   68) = (   0.3250000   0.3250000   0.0000000), wk =   0.0246914
        k(   69) = (   0.3000000   0.3000000   0.0000000), wk =   0.0246914
        k(   70) = (   0.2750000   0.2750000   0.0000000), wk =   0.0246914
        k(   71) = (   0.2500000   0.2500000   0.0000000), wk =   0.0246914
        k(   72) = (   0.2250000   0.2250000   0.0000000), wk =   0.0246914
        k(   73) = (   0.2000000   0.2000000   0.0000000), wk =   0.0246914
        k(   74) = (   0.1750000   0.1750000   0.0000000), wk =   0.0246914
        k(   75) = (   0.1500000   0.1500000   0.0000000), wk =   0.0246914
        k(   76) = (   0.1250000   0.1250000   0.0000000), wk =   0.0246914
        k(   77) = (   0.1000000   0.1000000   0.0000000), wk =   0.0246914
        k(   78) = (   0.0750000   0.0750000   0.0000000), wk =   0.0246914
        k(   79) = (   0.0500000   0.0500000   0.0000000), wk =   0.0246914
        k(   80) = (   0.0250000   0.0250000   0.0000000), wk =   0.0246914
        k(   81) = (   0.0000000   0.0000000   0.0000000), wk =   0.0246914

                       cryst. coord.
        k(    1) = (   0.5000000   0.5000000   0.5000000), wk =   0.0246914
        k(    2) = (   0.4750000   0.4750000   0.4750000), wk =   0.0246914
        k(    3) = (   0.4500000   0.4500000   0.4500000), wk =   0.0246914
        k(    4) = (   0.4250000   0.4250000   0.4250000), wk =   0.0246914
        k(    5) = (   0.4000000   0.4000000   0.4000000), wk =   0.0246914
        k(    6) = (   0.3750000   0.3750000   0.3750000), wk =   0.0246914
        k(    7) = (   0.3500000   0.3500000   0.3500000), wk =   0.0246914
        k(    8) = (   0.3250000   0.3250000   0.3250000), wk =   0.0246914
        k(    9) = (   0.3000000   0.3000000   0.3000000), wk =   0.0246914
        k(   10) = (   0.2750000   0.2750000   0.2750000), wk =   0.0246914
        k(   11) = (   0.2500000   0.2500000   0.2500000), wk =   0.0246914
        k(   12) = (   0.2250000   0.2250000   0.2250000), wk =   0.0246914
        k(   13) = (   0.2000000   0.2000000   0.2000000), wk =   0.0246914
        k(   14) = (   0.1750000   0.1750000   0.1750000), wk =   0.0246914
        k(   15) = (   0.1500000   0.1500000   0.1500000), wk =   0.0246914
        k(   16) = (   0.1250000   0.1250000   0.1250000), wk =   0.0246914
        k(   17) = (   0.1000000   0.1000000   0.1000000), wk =   0.0246914
        k(   18) = (   0.0750000   0.0750000   0.0750000), wk =   0.0246914
        k(   19) = (   0.0500000   0.0500000   0.0500000), wk =   0.0246914
        k(   20) = (   0.0250000   0.0250000   0.0250000), wk =   0.0246914
        k(   21) = (   0.0000000   0.0000000   0.0000000), wk =   0.0246914
        k(   22) = (   0.0000000   0.0250000   0.0000000), wk =   0.0246914
        k(   23) = (   0.0000000   0.0500000   0.0000000), wk =   0.0246914
        k(   24) = (   0.0000000   0.0750000   0.0000000), wk =   0.0246914
        k(   25) = (   0.0000000   0.1000000   0.0000000), wk =   0.0246914
        k(   26) = (   0.0000000   0.1250000   0.0000000), wk =   0.0246914
        k(   27) = (   0.0000000   0.1500000   0.0000000), wk =   0.0246914
        k(   28) = (   0.0000000   0.1750000   0.0000000), wk =   0.0246914
        k(   29) = (   0.0000000   0.2000000   0.0000000), wk =   0.0246914
        k(   30) = (   0.0000000   0.2250000   0.0000000), wk =   0.0246914
        k(   31) = (   0.0000000   0.2500000   0.0000000), wk =   0.0246914
        k(   32) = (   0.0000000   0.2750000   0.0000000), wk =   0.0246914
        k(   33) = (   0.0000000   0.3000000   0.0000000), wk =   0.0246914
        k(   34) = (   0.0000000   0.3250000   0.0000000), wk =   0.0246914
        k(   35) = (   0.0000000   0.3500000   0.0000000), wk =   0.0246914
        k(   36) = (   0.0000000   0.3750000   0.0000000), wk =   0.0246914
        k(   37) = (   0.0000000   0.4000000   0.0000000), wk =   0.0246914
        k(   38) = (   0.0000000   0.4250000   0.0000000), wk =   0.0246914
        k(   39) = (   0.0000000   0.4500000   0.0000000), wk =   0.0246914
        k(   40) = (   0.0000000   0.4750000   0.0000000), wk =   0.0246914
        k(   41) = (   0.0000000   0.5000000   0.0000000), wk =   0.0246914
        k(   42) = (   0.0250000   0.5000000   0.0000000), wk =   0.0246914
        k(   43) = (   0.0500000   0.5000000   0.0000000), wk =   0.0246914
        k(   44) = (   0.0750000   0.5000000   0.0000000), wk =   0.0246914
        k(   45) = (   0.1000000   0.5000000   0.0000000), wk =   0.0246914
        k(   46) = (   0.1250000   0.5000000   0.0000000), wk =   0.0246914
        k(   47) = (   0.1500000   0.5000000   0.0000000), wk =   0.0246914
        k(   48) = (   0.1750000   0.5000000   0.0000000), wk =   0.0246914
        k(   49) = (   0.2000000   0.5000000   0.0000000), wk =   0.0246914
        k(   50) = (   0.2250000   0.5000000   0.0000000), wk =   0.0246914
        k(   51) = (   0.2500000   0.5000000   0.0000000), wk =   0.0246914
        k(   52) = (   0.2750000   0.5000000   0.0000000), wk =   0.0246914
        k(   53) = (   0.3000000   0.5000000   0.0000000), wk =   0.0246914
        k(   54) = (   0.3250000   0.5000000   0.0000000), wk =   0.0246914
        k(   55) = (   0.3500000   0.5000000   0.0000000), wk =   0.0246914
        k(   56) = (   0.3750000   0.5000000   0.0000000), wk =   0.0246914
        k(   57) = (   0.4000000   0.5000000   0.0000000), wk =   0.0246914
        k(   58) = (   0.4250000   0.5000000   0.0000000), wk =   0.0246914
        k(   59) = (   0.4500000   0.5000000   0.0000000), wk =   0.0246914
        k(   60) = (   0.4750000   0.5000000   0.0000000), wk =   0.0246914
        k(   61) = (   0.5000000   0.5000000   0.0000000), wk =   0.0246914
        k(   62) = (   0.4750000   0.4750000   0.0000000), wk =   0.0246914
        k(   63) = (   0.4500000   0.4500000   0.0000000), wk =   0.0246914
        k(   64) = (   0.4250000   0.4250000   0.0000000), wk =   0.0246914
        k(   65) = (   0.4000000   0.4000000   0.0000000), wk =   0.0246914
        k(   66) = (   0.3750000   0.3750000   0.0000000), wk =   0.0246914
        k(   67) = (   0.3500000   0.3500000   0.0000000), wk =   0.0246914
        k(   68) = (   0.3250000   0.3250000   0.0000000), wk =   0.0246914
        k(   69) = (   0.3000000   0.3000000   0.0000000), wk =   0.0246914
        k(   70) = (   0.2750000   0.2750000   0.0000000), wk =   0.0246914
        k(   71) = (   0.2500000   0.2500000   0.0000000), wk =   0.0246914
        k(   72) = (   0.2250000   0.2250000   0.0000000), wk =   0.0246914
        k(   73) = (   0.2000000   0.2000000   0.0000000), wk =   0.0246914
        k(   74) = (   0.1750000   0.1750000   0.0000000), wk =   0.0246914
        k(   75) = (   0.1500000   0.1500000   0.0000000), wk =   0.0246914
        k(   76) = (   0.1250000   0.1250000   0.0000000), wk =   0.0246914
        k(   77) = (   0.1000000   0.1000000   0.0000000), wk =   0.0246914
        k(   78) = (   0.0750000   0.0750000   0.0000000), wk =   0.0246914
        k(   79) = (   0.0500000   0.0500000   0.0000000), wk =   0.0246914
        k(   80) = (   0.0250000   0.0250000   0.0000000), wk =   0.0246914
        k(   81) = (   0.0000000   0.0000000   0.0000000), wk =   0.0246914

     Dense  grid:   122969 G-vectors     FFT dimensions: (  64,  64,  64)

     Smooth grid:    22743 G-vectors     FFT dimensions: (  36,  36,  36)

     Dynamical RAM for                 wfc:       0.11 MB

     Dynamical RAM for     wfc (w. buffer):       9.24 MB

     Dynamical RAM for           str. fact:       0.56 MB

     Dynamical RAM for           local pot:       0.00 MB

     Dynamical RAM for          nlocal pot:       0.26 MB

     Dynamical RAM for                qrad:       6.38 MB

     Dynamical RAM for          rho,v,vnew:       1.22 MB

     Dynamical RAM for           G-vectors:       0.72 MB

     Dynamical RAM for          h,s,v(r/c):       0.12 MB

     Dynamical RAM for          <psi|beta>:       0.02 MB

     Dynamical RAM for                 psi:       0.23 MB

     Dynamical RAM for                hpsi:       0.23 MB

     Dynamical RAM for                spsi:       0.23 MB

     Dynamical RAM for      wfcinit/wfcrot:       0.28 MB

     Dynamical RAM for           addusdens:      35.46 MB

     Estimated static dynamical RAM per process >      20.22 MB

     Estimated max dynamical RAM per process >      55.68 MB

     Estimated total dynamical RAM >     556.83 MB

     The potential is recalculated from file :
     ./work/pwscf.save/charge-density

     Starting wfcs are   30 randomized atomic wfcs
     Checking if some PAW data can be deallocated... 
       PAW data deallocated on    8 nodes for type:  1
       PAW data deallocated on    4 nodes for type:  2
       PAW data deallocated on    8 nodes for type:  3

     Band Structure Calculation
     Davidson diagonalization with overlap

     Computing kpt #:     1  of    81
     total cpu time spent up to now is        1.3 secs

     Computing kpt #:     2  of    81
     total cpu time spent up to now is        1.4 secs

     Computing kpt #:     3  of    81
     total cpu time spent up to now is        1.5 secs

     Computing kpt #:     4  of    81
     total cpu time spent up to now is        1.6 secs

     Computing kpt #:     5  of    81
     total cpu time spent up to now is        1.7 secs

     Computing kpt #:     6  of    81
     total cpu time spent up to now is        1.8 secs

     Computing kpt #:     7  of    81
     total cpu time spent up to now is        1.8 secs

     Computing kpt #:     8  of    81
     total cpu time spent up to now is        1.9 secs

     Computing kpt #:     9  of    81
     total cpu time spent up to now is        2.0 secs

     Computing kpt #:    10  of    81
     total cpu time spent up to now is        2.1 secs

     Computing kpt #:    11  of    81
     total cpu time spent up to now is        2.3 secs

     Computing kpt #:    12  of    81
     total cpu time spent up to now is        2.4 secs

     Computing kpt #:    13  of    81
     total cpu time spent up to now is        2.5 secs

     Computing kpt #:    14  of    81
     total cpu time spent up to now is        2.6 secs

     Computing kpt #:    15  of    81
     total cpu time spent up to now is        2.7 secs

     Computing kpt #:    16  of    81
     total cpu time spent up to now is        2.8 secs

     Computing kpt #:    17  of    81
     total cpu time spent up to now is        2.9 secs

     Computing kpt #:    18  of    81
     total cpu time spent up to now is        3.0 secs

     Computing kpt #:    19  of    81
     total cpu time spent up to now is        3.1 secs

     Computing kpt #:    20  of    81
     total cpu time spent up to now is        3.2 secs

     Computing kpt #:    21  of    81
     total cpu time spent up to now is        3.3 secs

     Computing kpt #:    22  of    81
     total cpu time spent up to now is        3.4 secs

     Computing kpt #:    23  of    81
     total cpu time spent up to now is        3.5 secs

     Computing kpt #:    24  of    81
     total cpu time spent up to now is        3.6 secs

     Computing kpt #:    25  of    81
     total cpu time spent up to now is        3.7 secs

     Computing kpt #:    26  of    81
     total cpu time spent up to now is        3.8 secs

     Computing kpt #:    27  of    81
     total cpu time spent up to now is        3.9 secs

     Computing kpt #:    28  of    81
     total cpu time spent up to now is        4.0 secs

     Computing kpt #:    29  of    81
     total cpu time spent up to now is        4.1 secs

     Computing kpt #:    30  of    81
     total cpu time spent up to now is        4.2 secs

     Computing kpt #:    31  of    81
     total cpu time spent up to now is        4.3 secs

     Computing kpt #:    32  of    81
     total cpu time spent up to now is        4.4 secs

     Computing kpt #:    33  of    81
     total cpu time spent up to now is        4.5 secs

     Computing kpt #:    34  of    81
     total cpu time spent up to now is        4.6 secs

     Computing kpt #:    35  of    81
     total cpu time spent up to now is        4.7 secs

     Computing kpt #:    36  of    81
     total cpu time spent up to now is        4.8 secs

     Computing kpt #:    37  of    81
     total cpu time spent up to now is        4.9 secs

     Computing kpt #:    38  of    81
     total cpu time spent up to now is        4.9 secs

     Computing kpt #:    39  of    81
     total cpu time spent up to now is        5.1 secs

     Computing kpt #:    40  of    81
     total cpu time spent up to now is        5.1 secs

     Computing kpt #:    41  of    81
     total cpu time spent up to now is        5.2 secs

     Computing kpt #:    42  of    81
     total cpu time spent up to now is        5.3 secs

     Computing kpt #:    43  of    81
     total cpu time spent up to now is        5.4 secs

     Computing kpt #:    44  of    81
     total cpu time spent up to now is        5.5 secs

     Computing kpt #:    45  of    81
     total cpu time spent up to now is        5.6 secs

     Computing kpt #:    46  of    81
     total cpu time spent up to now is        5.7 secs

     Computing kpt #:    47  of    81
     total cpu time spent up to now is        5.8 secs

     Computing kpt #:    48  of    81
     total cpu time spent up to now is        5.9 secs

     Computing kpt #:    49  of    81
     total cpu time spent up to now is        6.1 secs

     Computing kpt #:    50  of    81
     total cpu time spent up to now is        6.2 secs

     Computing kpt #:    51  of    81
     total cpu time spent up to now is        6.3 secs

     Computing kpt #:    52  of    81
     total cpu time spent up to now is        6.4 secs

     Computing kpt #:    53  of    81
     total cpu time spent up to now is        6.5 secs

     Computing kpt #:    54  of    81
     total cpu time spent up to now is        6.6 secs

     Computing kpt #:    55  of    81
     total cpu time spent up to now is        6.7 secs

     Computing kpt #:    56  of    81
     total cpu time spent up to now is        6.8 secs

     Computing kpt #:    57  of    81
     total cpu time spent up to now is        6.9 secs

     Computing kpt #:    58  of    81
     total cpu time spent up to now is        7.0 secs

     Computing kpt #:    59  of    81
     total cpu time spent up to now is        7.1 secs

     Computing kpt #:    60  of    81
     total cpu time spent up to now is        7.3 secs

     Computing kpt #:    61  of    81
     total cpu time spent up to now is        7.4 secs

     Computing kpt #:    62  of    81
     total cpu time spent up to now is        7.5 secs

     Computing kpt #:    63  of    81
     total cpu time spent up to now is        7.6 secs

     Computing kpt #:    64  of    81
     total cpu time spent up to now is        7.7 secs

     Computing kpt #:    65  of    81
     total cpu time spent up to now is        7.8 secs

     Computing kpt #:    66  of    81
     total cpu time spent up to now is        7.9 secs

     Computing kpt #:    67  of    81
     total cpu time spent up to now is        8.0 secs

     Computing kpt #:    68  of    81
     total cpu time spent up to now is        8.1 secs

     Computing kpt #:    69  of    81
     total cpu time spent up to now is        8.2 secs

     Computing kpt #:    70  of    81
     total cpu time spent up to now is        8.4 secs

     Computing kpt #:    71  of    81
     total cpu time spent up to now is        8.5 secs

     Computing kpt #:    72  of    81
     total cpu time spent up to now is        8.6 secs

     Computing kpt #:    73  of    81
     total cpu time spent up to now is        8.7 secs

     Computing kpt #:    74  of    81
     total cpu time spent up to now is        8.9 secs

     Computing kpt #:    75  of    81
     total cpu time spent up to now is        9.0 secs

     Computing kpt #:    76  of    81
     total cpu time spent up to now is        9.1 secs

     Computing kpt #:    77  of    81
     total cpu time spent up to now is        9.2 secs

     Computing kpt #:    78  of    81
     total cpu time spent up to now is        9.3 secs

     Computing kpt #:    79  of    81
     total cpu time spent up to now is        9.4 secs

     Computing kpt #:    80  of    81
     total cpu time spent up to now is        9.5 secs

     Computing kpt #:    81  of    81
     total cpu time spent up to now is        9.6 secs

     ethr =  8.60E-07,  avg # of iterations = 39.9

     total cpu time spent up to now is        9.6 secs

     End of band structure calculation

          k = 0.5000 0.5000 0.5000 (  2872 PWs)   bands (ev):

   -69.4581 -38.1689 -38.1689 -38.1689 -22.4225  -6.6156  -6.6156  -6.6156
    -4.7720  -4.7720  -4.7720   4.1296   5.2779   5.2779   6.0475   6.0475
     6.0475   9.9244   9.9244   9.9244  11.5609  11.5609  11.5609  15.0278
    15.0279  17.2316

          k = 0.4750 0.4750 0.4750 (  2857 PWs)   bands (ev):

   -69.4581 -38.1689 -38.1689 -38.1689 -22.4229  -6.6375  -6.6180  -6.6180
    -4.7656  -4.7656  -4.7519   4.1481   5.2857   5.2857   6.0390   6.0531
     6.0531   9.9046   9.9046   9.9165  11.5511  11.5534  11.5534  15.0023
    15.0024  17.2583

          k = 0.4500 0.4500 0.4500 (  2848 PWs)   bands (ev):

   -69.4580 -38.1688 -38.1688 -38.1688 -22.4240  -6.6996  -6.6248  -6.6248
    -4.7470  -4.7470  -4.6954   4.2024   5.3084   5.3084   6.0159   6.0702
     6.0702   9.8470   9.8470   9.8930  11.5218  11.5310  11.5310  14.9281
    14.9282  17.3356

          k = 0.4250 0.4250 0.4250 (  2860 PWs)   bands (ev):

   -69.4581 -38.1687 -38.1687 -38.1687 -22.4259  -6.7922  -6.6351  -6.6351
    -4.7176  -4.7176  -4.6130   4.2898   5.3456   5.3457   5.9847   6.0993
     6.0993   9.7572   9.7572   9.8547  11.4737  11.4939  11.4939  14.8106
    14.8107  17.4507

          k = 0.4000 0.4000 0.4000 (  2854 PWs)   bands (ev):

   -69.4581 -38.1685 -38.1685 -38.1685 -22.4285  -6.9045  -6.6474  -6.6474
    -4.6801  -4.6801  -4.5163   4.4050   5.3966   5.3966   5.9565   6.1417
     6.1417   9.6434   9.6434   9.8027  11.4089  11.4429  11.4429  14.6566
    14.6567  17.5930

          k = 0.3750 0.3750 0.3750 (  2854 PWs)   bands (ev):

   -69.4581 -38.1682 -38.1682 -38.1682 -22.4318  -7.0269  -6.6601  -6.6601
    -4.6373  -4.6373  -4.4168   4.5402   5.4598   5.4598   5.9456   6.1986
     6.1986   9.5146   9.5146   9.7390  11.3280  11.3787  11.3788  14.4719
    14.4719  17.7428

          k = 0.3500 0.3500 0.3500 (  2854 PWs)   bands (ev):

   -69.4581 -38.1680 -38.1679 -38.1679 -22.4356  -7.1517  -6.6714  -6.6714
    -4.5923  -4.5923  -4.3233   4.6847   5.5337   5.5337   5.9690   6.2718
     6.2718   9.3803   9.3803   9.6654  11.2336  11.3023  11.3023  14.2616
    14.2616  17.8825

          k = 0.3250 0.3250 0.3250 (  2833 PWs)   bands (ev):

   -69.4581 -38.1676 -38.1676 -38.1676 -22.4400  -7.2732  -6.6800  -6.6800
    -4.5482  -4.5482  -4.2431   4.8266   5.6159   5.6159   6.0439   6.3632
     6.3632   9.2492   9.2492   9.5841  11.1278  11.2146  11.2147  14.0302
    14.0302  17.9958

          k = 0.3000 0.3000 0.3000 (  2836 PWs)   bands (ev):

   -69.4581 -38.1673 -38.1673 -38.1673 -22.4449  -7.3874  -6.6847  -6.6847
    -4.5077  -4.5077  -4.1814   4.9580   5.7041   5.7041   6.1810   6.4744
     6.4744   9.1290   9.1290   9.4976  11.0123  11.1168  11.1168  13.7815
    13.7815  18.0720

          k = 0.2750 0.2750 0.2750 (  2827 PWs)   bands (ev):

   -69.4581 -38.1669 -38.1669 -38.1669 -22.4501  -7.4913  -6.6849  -6.6849
    -4.4733  -4.4733  -4.1413   5.0797   5.7953   5.7954   6.3809   6.6067
     6.6067   9.0264   9.0264   9.4079  10.8897  11.0100  11.0100  13.5193
    13.5193  17.9538

          k = 0.2500 0.2500 0.2500 (  2812 PWs)   bands (ev):

   -69.4581 -38.1666 -38.1665 -38.1665 -22.4555  -7.5830  -6.6800  -6.6800
    -4.4465  -4.4465  -4.1241   5.1998   5.8868   5.8868   6.6330   6.7610
     6.7610   8.9470   8.9470   9.3177  10.7622  10.8951  10.8951  13.2470
    13.2471  17.7481

          k = 0.2250 0.2250 0.2250 (  2836 PWs)   bands (ev):

   -69.4582 -38.1662 -38.1662 -38.1662 -22.4611  -7.6615  -6.6701  -6.6701
    -4.4284  -4.4284  -4.1293   5.3266   5.9754   5.9755   6.9234   6.9369
     6.9369   8.8949   8.8949   9.2289  10.6319  10.7729  10.7730  12.9678
    12.9679  17.4983

          k = 0.2000 0.2000 0.2000 (  2839 PWs)   bands (ev):

   -69.4583 -38.1658 -38.1658 -38.1658 -22.4666  -7.7265  -6.6556  -6.6556
    -4.4193  -4.4193  -4.1544   5.4647   6.0585   6.0586   7.1337   7.1338
     7.2389   8.8734   8.8734   9.1437  10.5015  10.6444  10.6444  12.6853
    12.6854  17.2262

          k = 0.1750 0.1750 0.1750 (  2839 PWs)   bands (ev):

   -69.4583 -38.1655 -38.1654 -38.1654 -22.4720  -7.7781  -6.6373  -6.6373
    -4.4185  -4.4185  -4.1956   5.6135   6.1337   6.1337   7.3492   7.3492
     7.5687   8.8838   8.8838   9.0640  10.3728  10.5095  10.5095  12.4029
    12.4029  16.9461

          k = 0.1500 0.1500 0.1500 (  2848 PWs)   bands (ev):

   -69.4583 -38.1651 -38.1651 -38.1651 -22.4770  -7.8174  -6.6163  -6.6163
    -4.4249  -4.4249  -4.2478   5.7684   6.1989   6.1989   7.5802   7.5802
     7.9019   8.9256   8.9256   8.9916  10.2474  10.3683  10.3683  12.1245
    12.1245  16.6693

          k = 0.1250 0.1250 0.1250 (  2848 PWs)   bands (ev):

   -69.4583 -38.1649 -38.1648 -38.1648 -22.4816  -7.8458  -6.5940  -6.5940
    -4.4364  -4.4364  -4.3056   5.9223   6.2533   6.2533   7.8220   7.8220
     8.2293   8.9278   8.9959   8.9959  10.1263  10.2205  10.2205  11.8548
    11.8548  16.4061

          k = 0.1000 0.1000 0.1000 (  2842 PWs)   bands (ev):

   -69.4583 -38.1646 -38.1646 -38.1646 -22.4856  -7.8650  -6.5722  -6.5722
    -4.4509  -4.4509  -4.3630   6.0662   6.2966   6.2966   8.0680   8.0680
     8.5414   8.8739   9.0892   9.0892  10.0087  10.0663  10.0663  11.6002
    11.6003  16.1681

          k = 0.0750 0.0750 0.0750 (  2854 PWs)   bands (ev):

   -69.4584 -38.1644 -38.1644 -38.1644 -22.4888  -7.8771  -6.5527  -6.5527
    -4.4658  -4.4658  -4.4145   6.1907   6.3291   6.3291   8.3090   8.3090
     8.8290   8.8309   9.1963   9.1963   9.8922   9.9067   9.9067  11.3701
    11.3701  15.9664

          k = 0.0500 0.0500 0.0500 (  2858 PWs)   bands (ev):

   -69.4584 -38.1643 -38.1642 -38.1642 -22.4912  -7.8840  -6.5372  -6.5372
    -4.4785  -4.4785  -4.4551   6.2871   6.3515   6.3516   8.5302   8.5302
     8.7997   9.0844   9.3044   9.3044   9.7470   9.7470   9.7721  11.1789
    11.1789  15.8124

          k = 0.0250 0.0250 0.0250 (  2861 PWs)   bands (ev):

   -69.4584 -38.1642 -38.1642 -38.1642 -22.4927  -7.8873  -6.5272  -6.5272
    -4.4871  -4.4871  -4.4812   6.3481   6.3647   6.3647   8.7033   8.7033
     8.7806   9.3029   9.3988   9.3988   9.6012   9.6012   9.6410  11.0476
    11.0476  15.7157

          k = 0.0000 0.0000 0.0000 (  2897 PWs)   bands (ev):

   -69.4585 -38.1641 -38.1641 -38.1641 -22.4933  -7.8883  -6.5238  -6.5238
    -4.4902  -4.4902  -4.4902   6.3689   6.3689   6.3689   8.7741   8.7741
     8.7741   9.4672   9.4672   9.4672   9.5067   9.5067   9.5067  10.9999
    10.9999  15.6827

          k = 0.0000 0.0250 0.0000 (  2865 PWs)   bands (ev):

   -69.4584 -38.1642 -38.1641 -38.1641 -22.4931  -7.8880  -6.5263  -6.5235
    -4.4898  -4.4898  -4.4859   6.3591   6.3690   6.3690   8.7532   8.7532
     8.7686   9.4102   9.4103   9.4369   9.5072   9.5837   9.5837  11.0000
    11.0317  15.6938

          k = 0.0000 0.0500 0.0000 (  2849 PWs)   bands (ev):

   -69.4584 -38.1643 -38.1641 -38.1641 -22.4925  -7.8871  -6.5337  -6.5227
    -4.4887  -4.4887  -4.4732   6.3298   6.3691   6.3691   8.6945   8.6945
     8.7516   9.3532   9.3562   9.3562   9.5083   9.6928   9.6928  11.0004
    11.1195  15.7252

          k = 0.0000 0.0750 0.0000 (  2857 PWs)   bands (ev):

   -69.4584 -38.1644 -38.1641 -38.1641 -22.4917  -7.8858  -6.5454  -6.5215
    -4.4868  -4.4868  -4.4528   6.2820   6.3693   6.3693   8.6084   8.6084
     8.7240   9.2319   9.3158   9.3158   9.5099   9.8132   9.8132  11.0007
    11.2472  15.7786

          k = 0.0000 0.1000 0.0000 (  2857 PWs)   bands (ev):

   -69.4584 -38.1647 -38.1641 -38.1641 -22.4906  -7.8844  -6.5603  -6.5199
    -4.4843  -4.4843  -4.4256   6.2176   6.3696   6.3696   8.5053   8.5054
     8.6868   9.0882   9.2841   9.2841   9.5120   9.9398   9.9398  11.0011
    11.3995  15.8505

          k = 0.0000 0.1250 0.0000 (  2857 PWs)   bands (ev):

   -69.4584 -38.1649 -38.1641 -38.1641 -22.4893  -7.8832  -6.5774  -6.5178
    -4.4812  -4.4812  -4.3926   6.1385   6.3702   6.3702   8.3935   8.3935
     8.6415   8.9331   9.2565   9.2565   9.5148  10.0690  10.0690  11.0016
    11.5647  15.9426

          k = 0.0000 0.1500 0.0000 (  2857 PWs)   bands (ev):

   -69.4584 -38.1653 -38.1641 -38.1641 -22.4876  -7.8826  -6.5953  -6.5154
    -4.4775  -4.4775  -4.3553   6.0475   6.3710   6.3710   8.2779   8.2779
     8.5896   8.7739   9.2309   9.2309   9.5179  10.1984  10.1984  11.0022
    11.7350  16.0510

          k = 0.0000 0.1750 0.0000 (  2849 PWs)   bands (ev):

   -69.4584 -38.1656 -38.1640 -38.1640 -22.4858  -7.8829  -6.6127  -6.5127
    -4.4734  -4.4734  -4.3149   5.9473   6.3722   6.3722   8.1621   8.1621
     8.5327   8.6156   9.2061   9.2061   9.5215  10.3259  10.3260  11.0028
    11.9050  16.1744

          k = 0.0000 0.2000 0.0000 (  2845 PWs)   bands (ev):

   -69.4583 -38.1660 -38.1640 -38.1640 -22.4839  -7.8844  -6.6287  -6.5097
    -4.4689  -4.4689  -4.2727   5.8408   6.3739   6.3739   8.0483   8.0484
     8.4611   8.4726   9.1816   9.1817   9.5254  10.4500  10.4500  11.0034
    12.0710  16.3126

          k = 0.0000 0.2250 0.0000 (  2830 PWs)   bands (ev):

   -69.4583 -38.1664 -38.1640 -38.1640 -22.4818  -7.8875  -6.6424  -6.5066
    -4.4642  -4.4642  -4.2299   5.7311   6.3762   6.3762   7.9383   7.9383
     8.3132   8.4109   9.1575   9.1575   9.5294  10.5694  10.5694  11.0040
    12.2300  16.4623

          k = 0.0000 0.2500 0.0000 (  2838 PWs)   bands (ev):

   -69.4583 -38.1669 -38.1640 -38.1640 -22.4797  -7.8922  -6.6531  -6.5034
    -4.4593  -4.4593  -4.1877   5.6208   6.3791   6.3791   7.8332   7.8332
     8.1733   8.3491   9.1340   9.1340   9.5336  10.6826  10.6826  11.0046
    12.3797  16.6199

          k = 0.0000 0.2750 0.0000 (  2838 PWs)   bands (ev):

   -69.4583 -38.1673 -38.1640 -38.1640 -22.4775  -7.8984  -6.6607  -6.5002
    -4.4545  -4.4545  -4.1470   5.5127   6.3826   6.3826   7.7342   7.7342
     8.0430   8.2889   9.1114   9.1114   9.5378  10.7886  10.7887  11.0052
    12.5188  16.7819

          k = 0.0000 0.3000 0.0000 (  2838 PWs)   bands (ev):

   -69.4583 -38.1677 -38.1639 -38.1639 -22.4755  -7.9059  -6.6651  -6.4971
    -4.4497  -4.4497  -4.1087   5.4095   6.3869   6.3869   7.6421   7.6421
     7.9235   8.2314   9.0900   9.0900   9.5420  10.8865  10.8866  11.0057
    12.6457  16.9459

          k = 0.0000 0.3250 0.0000 (  2834 PWs)   bands (ev):

   -69.4583 -38.1681 -38.1639 -38.1639 -22.4735  -7.9142  -6.6668  -6.4941
    -4.4452  -4.4452  -4.0735   5.3130   6.3918   6.3918   7.5579   7.5580
     7.8156   8.1781   9.0702   9.0703   9.5459  10.9754  10.9754  11.0062
    12.7597  17.1058

          k = 0.0000 0.3500 0.0000 (  2838 PWs)   bands (ev):

   -69.4583 -38.1685 -38.1639 -38.1639 -22.4717  -7.9229  -6.6663  -6.4913
    -4.4410  -4.4410  -4.0419   5.2256   6.3971   6.3972   7.4825   7.4825
     7.7203   8.1297   9.0524   9.0524   9.5495  11.0066  11.0542  11.0542
    12.8596  17.2577

          k = 0.0000 0.3750 0.0000 (  2842 PWs)   bands (ev):

   -69.4583 -38.1688 -38.1639 -38.1639 -22.4700  -7.9315  -6.6642  -6.4889
    -4.4373  -4.4373  -4.0146   5.1488   6.4028   6.4028   7.4165   7.4165
     7.6383   8.0874   9.0367   9.0367   9.5527  11.0069  11.1223  11.1223
    12.9450  17.3966

          k = 0.0000 0.4000 0.0000 (  2834 PWs)   bands (ev):

   -69.4583 -38.1691 -38.1638 -38.1638 -22.4686  -7.9394  -6.6612  -6.4868
    -4.4341  -4.4341  -3.9918   5.0841   6.4083   6.4083   7.3610   7.3610
     7.5704   8.0517   9.0236   9.0236   9.5555  11.0073  11.1790  11.1791
    13.0155  17.5179

          k = 0.0000 0.4250 0.0000 (  2830 PWs)   bands (ev):

   -69.4582 -38.1693 -38.1638 -38.1638 -22.4675  -7.9461  -6.6581  -6.4851
    -4.4315  -4.4315  -3.9738   5.0326   6.4134   6.4134   7.3166   7.3166
     7.5169   8.0233   9.0132   9.0132   9.5578  11.0075  11.2238  11.2238
    13.0706  17.6173

          k = 0.0000 0.4500 0.0000 (  2850 PWs)   bands (ev):

   -69.4583 -38.1695 -38.1638 -38.1638 -22.4667  -7.9512  -6.6553  -6.4839
    -4.4296  -4.4296  -3.9609   4.9951   6.4174   6.4174   7.2840   7.2841
     7.4782   8.0027   9.0056   9.0056   9.5594  11.0077  11.2560  11.2560
    13.1099  17.5100

          k = 0.0000 0.4750 0.0000 (  2850 PWs)   bands (ev):

   -69.4583 -38.1696 -38.1638 -38.1638 -22.4662  -7.9544  -6.6535  -6.4831
    -4.4284  -4.4284  -3.9530   4.9724   6.4201   6.4201   7.2643   7.2643
     7.4550   7.9903   9.0010   9.0010   9.5604  11.0078  11.2755  11.2756
    13.1337  17.7368

          k = 0.0000 0.5000 0.0000 (  2826 PWs)   bands (ev):

   -69.4582 -38.1696 -38.1638 -38.1638 -22.4660  -7.9555  -6.6528  -6.4828
    -4.4280  -4.4280  -3.9504   4.9648   6.4211   6.4211   7.2576   7.2577
     7.4472   7.9862   8.9995   8.9995   9.5608  11.0080  11.2822  11.2822
    13.1419  17.7523

          k = 0.0250 0.5000 0.0000 (  2842 PWs)   bands (ev):

   -69.4583 -38.1696 -38.1638 -38.1638 -22.4659  -7.9524  -6.6553  -6.4833
    -4.4277  -4.4263  -3.9521   4.9639   6.4139   6.4224   7.1682   7.2549
     7.5201   8.0083   8.9676   8.9815   9.5933  11.0280  11.2806  11.2814
    13.1515  17.7622

          k = 0.0500 0.5000 0.0000 (  2850 PWs)   bands (ev):

   -69.4582 -38.1696 -38.1639 -38.1638 -22.4655  -7.9431  -6.6626  -6.4847
    -4.4265  -4.4211  -3.9572   4.9613   6.3923   6.4262   7.0164   7.2466
     7.6203   8.0765   8.8880   8.9315   9.6751  11.0843  11.2762  11.2793
    13.1808  17.7918

          k = 0.0750 0.5000 0.0000 (  2844 PWs)   bands (ev):

   -69.4583 -38.1696 -38.1641 -38.1638 -22.4648  -7.9277  -6.6744  -6.4872
    -4.4246  -4.4127  -3.9655   4.9569   6.3560   6.4327   6.8545   7.2332
     7.6985   8.1873   8.7844   8.8590   9.7821  11.1669  11.2694  11.2760
    13.2304  17.6065

          k = 0.1000 0.5000 0.0000 (  2846 PWs)   bands (ev):

   -69.4583 -38.1696 -38.1643 -38.1638 -22.4639  -7.9062  -6.6904  -6.4911
    -4.4220  -4.4012  -3.9766   4.9507   6.3049   6.4418   6.6915   7.2148
     7.7583   8.3273   8.6707   8.7750   9.9003  11.2605  11.2638  11.2715
    13.3006  17.6425

          k = 0.1250 0.5000 0.0000 (  2838 PWs)   bands (ev):

   -69.4582 -38.1695 -38.1646 -38.1638 -22.4627  -7.8789  -6.7100  -6.4966
    -4.4188  -4.3872  -3.9903   4.9425   6.2391   6.4535   6.5311   7.1921
     7.8096   8.4819   8.5532   8.6897  10.0230  11.2505  11.2661  11.3645
    13.3912  17.6870

          k = 0.1500 0.5000 0.0000 (  2844 PWs)   bands (ev):

   -69.4582 -38.1695 -38.1649 -38.1638 -22.4614  -7.8460  -6.7328  -6.5041
    -4.4151  -4.3710  -4.0060   4.9322   6.1596   6.3752   6.4678   7.1657
     7.8583   8.4352   8.6102   8.6412  10.1465  11.2400  11.2599  11.4610
    13.5012  17.7391

          k = 0.1750 0.5000 0.0000 (  2840 PWs)   bands (ev):

   -69.4582 -38.1695 -38.1653 -38.1637 -22.4598  -7.8077  -6.7579  -6.5141
    -4.4108  -4.3531  -4.0232   4.9195   6.0685   6.2254   6.4847   7.1362
     7.9074   8.3186   8.5411   8.7995  10.2687  11.2302  11.2532  11.5485
    13.6282  17.7979

          k = 0.2000 0.5000 0.0000 (  2848 PWs)   bands (ev):

   -69.4582 -38.1695 -38.1657 -38.1637 -22.4582  -7.7643  -6.7848  -6.5271
    -4.4062  -4.3340  -4.0412   4.9039   5.9688   6.0828   6.5042   7.1043
     7.9573   8.2044   8.4845   8.9529  10.3876  11.2220  11.2462  11.6246
    13.7688  17.8620

          k = 0.2250 0.5000 0.0000 (  2846 PWs)   bands (ev):

   -69.4582 -38.1695 -38.1661 -38.1637 -22.4564  -7.7162  -6.8127  -6.5435
    -4.4014  -4.3143  -4.0596   4.8850   5.8644   5.9483   6.5263   7.0711
     8.0082   8.0935   8.4408   9.0983  10.5023  11.2165  11.2391  11.6888
    13.9184  17.9305

          k = 0.2500 0.5000 0.0000 (  2840 PWs)   bands (ev):

   -69.4582 -38.1694 -38.1665 -38.1637 -22.4547  -7.6638  -6.8408  -6.5638
    -4.3964  -4.2943  -4.0777   4.8621   5.7598   5.8228   6.5509   7.0372
     7.9866   8.0593   8.4089   9.2334  10.6114  11.2147  11.2321  11.7420
    14.0724  18.0021

          k = 0.2750 0.5000 0.0000 (  2840 PWs)   bands (ev):

   -69.4582 -38.1694 -38.1670 -38.1636 -22.4529  -7.6075  -6.8685  -6.5884
    -4.3914  -4.2747  -4.0951   4.8345   5.6594   5.7069   6.5779   7.0035
     7.8841   8.1097   8.3874   9.3563  10.7138  11.2172  11.2253  11.7855
    14.2258  18.0750

          k = 0.3000 0.5000 0.0000 (  2836 PWs)   bands (ev):

   -69.4582 -38.1694 -38.1674 -38.1636 -22.4511  -7.5478  -6.8952  -6.6176
    -4.3865  -4.2558  -4.1112   4.8018   5.5674   5.6015   6.6073   6.9708
     7.7864   8.1584   8.3740   9.4655  10.8085  11.2190  11.2244  11.8206
    14.3743  18.1476

          k = 0.3250 0.5000 0.0000 (  2836 PWs)   bands (ev):

   -69.4582 -38.1693 -38.1678 -38.1636 -22.4495  -7.4852  -6.9202  -6.6516
    -4.3819  -4.2381  -4.1258   4.7641   5.4871   5.5070   6.6387   6.9400
     7.6942   8.2044   8.3671   9.5599  10.8946  11.2132  11.2359  11.8489
    14.5139  18.2183

          k = 0.3500 0.5000 0.0000 (  2842 PWs)   bands (ev):

   -69.4582 -38.1693 -38.1681 -38.1636 -22.4479  -7.4203  -6.9430  -6.6906
    -4.3776  -4.2220  -4.1385   4.7228   5.4202   5.4240   6.6717   6.9116
     7.6080   8.2466   8.3648   9.6394  10.9710  11.2080  11.2510  11.8713
    14.6413  18.2844

          k = 0.3750 0.5000 0.0000 (  2838 PWs)   bands (ev):

   -69.4581 -38.1693 -38.1685 -38.1636 -22.4466  -7.3536  -6.9632  -6.7345
    -4.3737  -4.2077  -4.1493   4.6800   5.3530   5.3671   6.7057   6.8865
     7.5288   8.2842   8.3655   9.7041  11.0372  11.2035  11.2685  11.8888
    14.7537  18.3448

          k = 0.4000 0.5000 0.0000 (  2826 PWs)   bands (ev):

   -69.4581 -38.1693 -38.1687 -38.1635 -22.4454  -7.2859  -6.9802  -6.7830
    -4.3704  -4.1956  -4.1581   4.6390   5.2944   5.3269   6.7396   6.8651
     7.4578   8.3162   8.3679   9.7549  11.0925  11.1998  11.2866  11.9023
    14.8487  18.3183

          k = 0.4250 0.5000 0.0000 (  2830 PWs)   bands (ev):

   -69.4581 -38.1693 -38.1690 -38.1635 -22.4445  -7.2176  -6.9938  -6.8360
    -4.3678  -4.1860  -4.1648   4.6030   5.2484   5.2978   6.7717   6.8480
     7.3966   8.3419   8.3708   9.7928  11.1361  11.1968  11.3032  11.9122
    14.9245  18.4398

          k = 0.4500 0.5000 0.0000 (  2842 PWs)   bands (ev):

   -69.4581 -38.1693 -38.1691 -38.1635 -22.4438  -7.1497  -7.0037  -6.8930
    -4.3659  -4.1790  -4.1695   4.5750   5.2154   5.2784   6.7992   6.8354
     7.3483   8.3607   8.3735   9.8188  11.1675  11.1946  11.3165  11.9189
    14.9795  18.2436

          k = 0.4750 0.5000 0.0000 (  2840 PWs)   bands (ev):

   -69.4581 -38.1693 -38.1692 -38.1635 -22.4434  -7.0826  -7.0098  -6.9533
    -4.3647  -4.1747  -4.1723   4.5573   5.1955   5.2673   6.8183   6.8278
     7.3167   8.3722   8.3753   9.8340  11.1865  11.1934  11.3253  11.9229
    15.0128  18.2248

          k = 0.5000 0.5000 0.0000 (  2832 PWs)   bands (ev):

   -69.4581 -38.1693 -38.1693 -38.1635 -22.4432  -7.0219  -7.0118  -7.0118
    -4.3643  -4.1733  -4.1733   4.5513   5.1889   5.2637   6.8253   6.8253
     7.3055   8.3760   8.3760   9.8390  11.1929  11.1929  11.3284  11.9243
    15.0240  18.2185

          k = 0.4750 0.4750 0.0000 (  2840 PWs)   bands (ev):

   -69.4581 -38.1692 -38.1692 -38.1635 -22.4435  -7.1094  -7.0093  -6.9273
    -4.3651  -4.1747  -4.1728   4.5634   5.2022   5.2708   6.8100   6.8322
     7.3274   8.3661   8.3770   9.8291  11.1863  11.1877  11.3222  11.9216
    15.0017  18.2304

          k = 0.4500 0.4500 0.0000 (  2826 PWs)   bands (ev):

   -69.4581 -38.1691 -38.1691 -38.1635 -22.4443  -7.2022  -7.0018  -6.8433
    -4.3674  -4.1790  -4.1715   4.5989   5.2426   5.2923   6.7711   6.8529
     7.3859   8.3380   8.3799   9.7999  11.1666  11.1719  11.3040  11.9138
    14.9356  18.2550

          k = 0.4250 0.4250 0.0000 (  2846 PWs)   bands (ev):

   -69.4582 -38.1690 -38.1690 -38.1636 -22.4457  -7.2932  -6.9894  -6.7673
    -4.3713  -4.1862  -4.1693   4.6554   5.3110   5.3274   6.7206   6.8872
     7.4686   8.2954   8.3850   9.7525  11.1340  11.1455  11.2738  11.9005
    14.8278  18.2460

          k = 0.4000 0.4000 0.0000 (  2842 PWs)   bands (ev):

   -69.4582 -38.1688 -38.1688 -38.1636 -22.4476  -7.3805  -6.9724  -6.7010
    -4.3766  -4.1961  -4.1662   4.7295   5.3758   5.4090   6.6673   6.9350
     7.5664   8.2447   8.3929   9.6895  11.0893  11.1087  11.2321  11.8819
    14.6824  18.1661

          k = 0.3750 0.3750 0.0000 (  2842 PWs)   bands (ev):

   -69.4582 -38.1685 -38.1685 -38.1636 -22.4500  -7.4623  -6.9509  -6.6459
    -4.3832  -4.2088  -4.1629   4.8173   5.4364   5.5375   6.6158   6.9959
     7.6742   8.1928   8.4041   9.6135  11.0331  11.0614  11.1794  11.8576
    14.5037  18.0420

          k = 0.3500 0.3500 0.0000 (  2848 PWs)   bands (ev):

   -69.4582 -38.1682 -38.1682 -38.1636 -22.4529  -7.5373  -6.9253  -6.6027
    -4.3908  -4.2241  -4.1600   4.9155   5.5076   5.6965   6.5682   7.0697
     7.7885   8.1474   8.4193   9.5280  10.9664  11.0035  11.1161  11.8273
    14.2964  17.8922

          k = 0.3250 0.3250 0.0000 (  2844 PWs)   bands (ev):

   -69.4582 -38.1679 -38.1679 -38.1637 -22.4561  -7.6046  -6.8960  -6.5711
    -4.3994  -4.2419  -4.1590   5.0219   5.5879   5.8844   6.5260   7.1559
     7.9075   8.1158   8.4393   9.4367  10.8902  10.9352  11.0433  11.7911
    14.0651  17.7246

          k = 0.3000 0.3000 0.0000 (  2852 PWs)   bands (ev):

   -69.4582 -38.1675 -38.1675 -38.1637 -22.4596  -7.6637  -6.8635  -6.5500
    -4.4086  -4.2619  -4.1615   5.1351   5.6752   6.0981   6.4895   7.2538
     8.0296   8.1040   8.4652   9.3436  10.8054  10.8565  10.9613  11.7485
    13.8145  17.5440

          k = 0.2750 0.2750 0.0000 (  2836 PWs)   bands (ev):

   -69.4582 -38.1671 -38.1671 -38.1638 -22.4633  -7.7144  -6.8285  -6.5377
    -4.4182  -4.2838  -4.1691   5.2545   5.7671   6.3337   6.4588   7.3629
     8.1173   8.1535   8.4980   9.2530  10.7134  10.7678  10.8712  11.6996
    13.5489  17.3538

          k = 0.2500 0.2500 0.0000 (  2848 PWs)   bands (ev):

   -69.4583 -38.1667 -38.1667 -38.1638 -22.4672  -7.7569  -6.7915  -6.5322
    -4.4281  -4.3073  -4.1835   5.3794   5.8606   6.4337   6.5862   7.4823
     8.1584   8.2784   8.5384   9.1687  10.6151  10.6691  10.7733  11.6442
    13.2719  17.1566

          k = 0.2250 0.2250 0.0000 (  2836 PWs)   bands (ev):

   -69.4583 -38.1663 -38.1663 -38.1639 -22.4711  -7.7915  -6.7534  -6.5311
    -4.4379  -4.3320  -4.2053   5.5090   5.9526   6.4138   6.8506   7.6112
     8.2289   8.4035   8.5870   9.0951  10.5119  10.5608  10.6683  11.5825
    12.9879  16.9553

          k = 0.2000 0.2000 0.0000 (  2835 PWs)   bands (ev):

   -69.4583 -38.1659 -38.1659 -38.1639 -22.4750  -7.8191  -6.7150  -6.5324
    -4.4475  -4.3573  -4.2347   5.6418   6.0402   6.3986   7.1215   7.7484
     8.3282   8.5281   8.6429   9.0368  10.4046  10.4437  10.5563  11.5146
    12.7003  16.7525

          k = 0.1750 0.1750 0.0000 (  2837 PWs)   bands (ev):

   -69.4583 -38.1656 -38.1655 -38.1640 -22.4787  -7.8404  -6.6774  -6.5342
    -4.4565  -4.3826  -4.2708   5.7753   6.1200   6.3875   7.3937   7.8927
     8.4538   8.6519   8.7014   9.0013  10.2941  10.3184  10.4378  11.4411
    12.4132  16.5519

          k = 0.1500 0.1500 0.0000 (  2841 PWs)   bands (ev):

   -69.4583 -38.1652 -38.1652 -38.1640 -22.4822  -7.8564  -6.6417  -6.5353
    -4.4648  -4.4070  -4.3117   5.9062   6.1898   6.3797   7.6619   8.0423
     8.6011   8.7500   8.7745   9.0023  10.1814  10.1861  10.3128  11.3630
    12.1306  16.3579

          k = 0.1250 0.1250 0.0000 (  2855 PWs)   bands (ev):

   -69.4584 -38.1649 -38.1649 -38.1640 -22.4854  -7.8681  -6.6088  -6.5349
    -4.4722  -4.4298  -4.3548   6.0300   6.2479   6.3747   7.9213   8.1952
     8.7629   8.7741   8.8958   9.0528  10.0486  10.0671  10.1811  11.2821
    11.8577  16.1781

          k = 0.1000 0.1000 0.0000 (  2855 PWs)   bands (ev):

   -69.4584 -38.1646 -38.1646 -38.1641 -22.4881  -7.8764  -6.5799  -6.5331
    -4.4785  -4.4500  -4.3969   6.1419   6.2939   6.3717   8.1665   8.3483
     8.7789   8.9301   9.0158   9.1430   9.9086   9.9520  10.0434  11.2013
    11.6011  16.0145

          k = 0.0750 0.0750 0.0000 (  2867 PWs)   bands (ev):

   -69.4584 -38.1644 -38.1644 -38.1641 -22.4903  -7.8820  -6.5562  -6.5301
    -4.4835  -4.4669  -4.4346   6.2364   6.3281   6.3700   8.3909   8.4966
     8.7775   9.0918   9.1346   9.2511   9.7706   9.8363   9.9008  11.1250
    11.3700  15.8755

          k = 0.0500 0.0500 0.0000 (  2867 PWs)   bands (ev):

   -69.4584 -38.1643 -38.1643 -38.1641 -22.4919  -7.8857  -6.5384  -6.5270
    -4.4872  -4.4796  -4.4644   6.3084   6.3513   6.3693   8.5830   8.6310
     8.7757   9.2380   9.2523   9.3566   9.6438   9.7205   9.7566  11.0604
    11.1787  15.7703

          k = 0.0250 0.0250 0.0000 (  2865 PWs)   bands (ev):

   -69.4584 -38.1642 -38.1642 -38.1641 -22.4929  -7.8877  -6.5274  -6.5246
    -4.4894  -4.4875  -4.4835   6.3536   6.3646   6.3690   8.7217   8.7336
     8.7746   9.3653   9.3687   9.4366   9.5458   9.6051   9.6173  11.0160
    11.0476  15.7046

          k = 0.0000 0.0000 0.0000 (  2897 PWs)   bands (ev):

   -69.4585 -38.1641 -38.1641 -38.1641 -22.4933  -7.8883  -6.5238  -6.5238
    -4.4902  -4.4902  -4.4902   6.3689   6.3689   6.3689   8.7741   8.7741
     8.7741   9.4672   9.4672   9.4672   9.5067   9.5067   9.5067  10.9999
    10.9999  15.6826

     Writing all to output data dir ./work/pwscf.save/

     init_run     :      0.60s CPU      0.68s WALL (       1 calls)
     electrons    :      7.71s CPU      8.35s WALL (       1 calls)

     Called by init_run:
     wfcinit      :      0.00s CPU      0.00s WALL (       1 calls)
     wfcinit:atom :      0.01s CPU      0.01s WALL (      81 calls)
     wfcinit:wfcr :      0.35s CPU      0.37s WALL (      81 calls)
     potinit      :      0.22s CPU      0.26s WALL (       1 calls)
     hinit0       :      0.27s CPU      0.28s WALL (       1 calls)

     Called by electrons:
     c_bands      :      7.70s CPU      8.35s WALL (       1 calls)
     v_of_rho     :      0.01s CPU      0.01s WALL (       1 calls)
     v_h          :      0.00s CPU      0.00s WALL (       1 calls)
     v_xc         :      0.01s CPU      0.01s WALL (       1 calls)
     newd         :      0.03s CPU      0.06s WALL (       1 calls)
     PAW_pot      :      0.04s CPU      0.05s WALL (       1 calls)

     Called by c_bands:
     init_us_2    :      0.01s CPU      0.01s WALL (      81 calls)
     init_us_2:cp :      0.01s CPU      0.01s WALL (      81 calls)
     cegterg      :      7.25s CPU      7.51s WALL (     203 calls)

     Called by sum_band:

     Called by *egterg:
     cdiaghg      :      1.49s CPU      1.55s WALL (    3310 calls)
     cegterg:over :      0.57s CPU      0.59s WALL (    3229 calls)
     cegterg:upda :      0.16s CPU      0.17s WALL (    3229 calls)
     cegterg:last :      0.32s CPU      0.33s WALL (    1376 calls)
     h_psi        :      4.42s CPU      4.58s WALL (    3513 calls)
     s_psi        :      0.16s CPU      0.17s WALL (    3513 calls)
     g_psi        :      0.03s CPU      0.04s WALL (    3229 calls)

     Called by h_psi:
     h_psi:calbec :      0.34s CPU      0.35s WALL (    3513 calls)
     vloc_psi     :      3.86s CPU      4.00s WALL (    3513 calls)
     add_vuspsi   :      0.20s CPU      0.21s WALL (    3513 calls)

     General routines
     calbec       :      0.34s CPU      0.35s WALL (    3513 calls)
     fft          :      0.17s CPU      0.17s WALL (      13 calls)
     ffts         :      0.17s CPU      0.17s WALL (       1 calls)
     fftw         :      3.59s CPU      3.72s WALL (   79098 calls)
     interpolate  :      0.17s CPU      0.17s WALL (       1 calls)

     Parallel routines

     PAW routines
     PAW_pot      :      0.04s CPU      0.05s WALL (       1 calls)

     PWSCF        :      8.64s CPU     10.61s WALL


   This run was terminated on:  14:11:38  25Sep2023            

=------------------------------------------------------------------------------=
   JOB DONE.
=------------------------------------------------------------------------------=
