<UPF version="2.0.1">
  <PP_INFO>
    Generated using "atomic" code by A. Dal Corso  v.7.2
    Author: ADC
    Generation date: 20Sep2023
    Pseudopotential type: USPP
    Element: Br
    Functional: PBE
    Suggested minimum cutoff for wavefunctions:  25. Ry
    Suggested minimum cutoff for charge density: 108. Ry
    The Pseudo was generated with a Scalar-Relativistic Calculation
    L component and cutoff radius for Local Potential:  2   1.9000
    Valence configuration: 
    nl pn  l   occ       Rcut    Rcut US       E pseu
    4S  1  0  2.00      1.700      1.900    -1.479839
    4P  2  1  5.00      1.700      1.800    -0.577675
    Generation configuration:
    4S  1  0  2.00      1.700      1.900    -1.479837
    4S  1  0  0.00      1.700      1.900    -1.000000
    4P  2  1  5.00      1.700      1.800    -0.577671
    4P  2  1  0.00      1.700      1.800     0.200000
    4D  3  2 -2.00      1.900      1.900    -0.500000
    Pseudization used: troullier-martins
    <PP_INPUTFILE>
@input
title='Br',
zed=35.,
rel=1,
config='[Ar] 3d10.0 4s2.0 4p5.0 4d-2.0',
iswitch=3,
dft='PBE'
/
@inputp
pseudotype=3,
file_pseudopw='Br.pbe-n-rrkjus_psl.0.2.UPF',
author='ADC',
lloc=2,
which_augfun='PSQ',
rmatch_augfun=1.6,
nlcc=.true.,
new_core_ps=.true.,
rcore=1.4,
tm=.true.
/
5
4S  1  0  2.00  0.00  1.70  1.90  0.0
4S  1  0  0.00 -1.00  1.70  1.90  0.0
4P  2  1  5.00  0.00  1.70  1.80  0.0
4P  2  1  0.00  0.20  1.70  1.80  0.0
4D  3  2 -2.00 -0.50  1.90  1.90  0.0
    </PP_INPUTFILE>
  </PP_INFO>
    <!-- END OF HUMAN READABLE SECTION -->
  <PP_HEADER generated="Generated using 'atomic' code by A. Dal Corso  v.7.2" author="ADC" date="20Sep2023" comment="" element="Br" pseudo_type="USPP" relativistic="scalar" is_ultrasoft="true" is_paw="false" is_coulomb="false" has_so="false" has_wfc="false" has_gipaw="false" paw_as_gipaw="false" core_correction="true" functional="PBE" z_valence="7.0000000000000000" total_psenergy="-33.749004229055892" wfc_cutoff="24.725533386491445" rho_cutoff="108.04768668924727" l_max="2" l_max_rho="4" l_local="2" mesh_size="1213" number_of_wfc="2" number_of_proj="4"/>
  <PP_MESH mesh="1213" dx="1.2500000000000001E-002" xmin="-7.0000000000000000" rmax="100.00000000000000" zmesh="35.000000000000000">
    <PP_R>
   2.605377044441475E-05   2.638148653340063E-05   2.671332478333092E-05
   2.704933704460726E-05   2.738957581982914E-05   2.773409427199740E-05
   2.808294623282110E-05   2.843618621112889E-05   2.879386940138601E-05
   2.915605169231870E-05   2.952278967564677E-05   2.989414065492624E-05
   3.027016265450315E-05   3.065091442857991E-05   3.103645547039594E-05
   3.142684602152338E-05   3.182214708128009E-05   3.222242041626092E-05
   3.262772856998879E-05   3.303813487268736E-05   3.345370345117641E-05
   3.387449923889180E-05   3.430058798603145E-05   3.473203626982899E-05
   3.516891150495660E-05   3.561128195405856E-05   3.605921673841756E-05
   3.651278584875498E-05   3.697206015616709E-05   3.743711142319886E-05
   3.790801231505690E-05   3.838483641096363E-05   3.886765821565411E-05
   3.935655317101763E-05   3.985159766788568E-05   4.035286905796805E-05
   4.086044566593927E-05   4.137440680167701E-05   4.189483277265437E-05
   4.242180489648820E-05   4.295540551364493E-05   4.349571800030662E-05
   4.404282678139858E-05   4.459681734378092E-05   4.515777624960620E-05
   4.572579114984469E-05   4.630095079798019E-05   4.688334506387789E-05
   4.747306494782668E-05   4.807020259475832E-05   4.867485130864497E-05
   4.928710556707835E-05   4.990706103603199E-05   5.053481458480916E-05
   5.117046430117913E-05   5.181410950670329E-05   5.246585077225449E-05
   5.312578993373146E-05   5.379403010797078E-05   5.447067570885933E-05
   5.515583246364884E-05   5.584960742947620E-05   5.655210901009134E-05
   5.726344697279540E-05   5.798373246559240E-05   5.871307803455597E-05
   5.945159764141513E-05   6.019940668136097E-05   6.095662200107738E-05
   6.172336191699869E-05   6.249974623379672E-05   6.328589626310048E-05
   6.408193484245152E-05   6.488798635449734E-05   6.570417674642675E-05
   6.653063354964897E-05   6.736748589972094E-05   6.821486455652496E-05
   6.907290192470011E-05   6.994173207433094E-05   7.082149076189596E-05
   7.171231545147995E-05   7.261434533625309E-05   7.352772136022000E-05
   7.445258624024280E-05   7.538908448834062E-05   7.633736243427001E-05
   7.729756824838933E-05   7.826985196481053E-05   7.925436550484254E-05
   8.025126270072894E-05   8.126069931968479E-05   8.228283308823552E-05
   8.331782371686193E-05   8.436583292495562E-05   8.542702446608743E-05
   8.650156415359472E-05   8.758961988648980E-05   8.869136167569453E-05
   8.980696167060516E-05   9.093659418599049E-05   9.208043572922932E-05
   9.323866502788995E-05   9.441146305765663E-05   9.559901307060778E-05
   9.680150062384890E-05   9.801911360850670E-05   9.925204227908725E-05
   1.005004792832037E-04   1.017646196916780E-04   1.030446610290209E-04
   1.043408033042955E-04   1.056532490423695E-04   1.069822033155594E-04
   1.083278737756745E-04   1.096904706864618E-04   1.110702069564609E-04
   1.124672981722710E-04   1.138819626322369E-04   1.153144213805588E-04
   1.167648982418305E-04   1.182336198560125E-04   1.197208157138451E-04
   1.212267181927069E-04   1.227515625929240E-04   1.242955871745362E-04
   1.258590331945259E-04   1.274421449445143E-04   1.290451697889333E-04
   1.306683582036764E-04   1.323119638152356E-04   1.339762434403318E-04
   1.356614571260422E-04   1.373678681904339E-04   1.390957432637075E-04
   1.408453523298586E-04   1.426169687688633E-04   1.444108693993947E-04
   1.462273345220758E-04   1.480666479632778E-04   1.499290971194681E-04
   1.518149730021164E-04   1.537245702831663E-04   1.556581873410779E-04
   1.576161263074506E-04   1.595986931142314E-04   1.616061975415174E-04
   1.636389532659596E-04   1.656972779097755E-04   1.677814930903786E-04
   1.698919244706313E-04   1.720289018097303E-04   1.741927590147325E-04
   1.763838341927286E-04   1.786024697036732E-04   1.808490122138785E-04
   1.831238127501824E-04   1.854272267547968E-04   1.877596141408461E-04
   1.901213393486050E-04   1.925127714024419E-04   1.949342839684808E-04
   1.973862554129866E-04   1.998690688614860E-04   2.023831122586321E-04
   2.049287784288200E-04   2.075064651375683E-04   2.101165751536696E-04
   2.127595163121239E-04   2.154357015778650E-04   2.181455491102846E-04
   2.208894823285734E-04   2.236679299778792E-04   2.264813261962998E-04
   2.293301105827189E-04   2.322147282654917E-04   2.351356299720009E-04
   2.380932720990803E-04   2.410881167843294E-04   2.441206319783242E-04
   2.471912915177324E-04   2.503005751993551E-04   2.534489688550931E-04
   2.566369644278605E-04   2.598650600484521E-04   2.631337601133754E-04
   2.664435753636665E-04   2.697950229646918E-04   2.731886265869573E-04
   2.766249164879340E-04   2.801044295949094E-04   2.836277095888860E-04
   2.871953069895310E-04   2.908077792411962E-04   2.944656908000214E-04
   2.981696132221287E-04   3.019201252529330E-04   3.057178129175694E-04
   3.095632696124615E-04   3.134570961980425E-04   3.173999010926373E-04
   3.213923003675333E-04   3.254349178432393E-04   3.295283851869606E-04
   3.336733420112987E-04   3.378704359741891E-04   3.421203228801035E-04
   3.464236667825171E-04   3.507811400876696E-04   3.551934236596312E-04
   3.596612069266857E-04   3.641851879890591E-04   3.687660737279963E-04
   3.734045799162137E-04   3.781014313297412E-04   3.828573618611665E-04
   3.876731146343124E-04   3.925494421203470E-04   3.974871062553605E-04
   4.024868785594210E-04   4.075495402571216E-04   4.126758823996537E-04
   4.178667059884063E-04   4.231228221001257E-04   4.284450520136490E-04
   4.338342273382270E-04   4.392911901434695E-04   4.448167930909168E-04
   4.504118995672711E-04   4.560773838193035E-04   4.618141310904535E-04
   4.676230377591551E-04   4.735050114788930E-04   4.794609713200274E-04
   4.854918479134024E-04   4.915985835957539E-04   4.977821325569576E-04
   5.040434609891190E-04   5.103835472375438E-04   5.168033819536090E-04
   5.233039682495479E-04   5.298863218551967E-04   5.365514712766974E-04
   5.433004579572073E-04   5.501343364396266E-04   5.570541745313713E-04
   5.640610534712223E-04   5.711560680982694E-04   5.783403270229826E-04
   5.856149528004359E-04   5.929810821057069E-04   6.004398659114866E-04
   6.079924696679193E-04   6.156400734847078E-04   6.233838723155078E-04
   6.312250761446413E-04   6.391649101761600E-04   6.472046150252849E-04
   6.553454469122551E-04   6.635886778586165E-04   6.719355958859745E-04
   6.803875052172537E-04   6.889457264804822E-04   6.976115969151438E-04
   7.063864705811256E-04   7.152717185702899E-04   7.242687292207127E-04
   7.333789083336125E-04   7.426036793930099E-04   7.519444837881518E-04
   7.614027810387282E-04   7.709800490229282E-04   7.806777842083591E-04
   7.904975018858737E-04   8.004407364063377E-04   8.105090414203743E-04
   8.207039901211267E-04   8.310271754900707E-04   8.414802105459225E-04
   8.520647285966774E-04   8.627823834948143E-04   8.736348498957170E-04
   8.846238235193398E-04   8.957510214151682E-04   9.070181822305129E-04
   9.184270664821734E-04   9.299794568315266E-04   9.416771583630676E-04
   9.535219988664594E-04   9.655158291221302E-04   9.776605231904580E-04
   9.899579787046007E-04   1.002410117167001E-03   1.015018884249628E-03
   1.027786250097990E-03   1.040714209638978E-03   1.053804782892572E-03
   1.067060015287475E-03   1.080481977980717E-03   1.094072768181276E-03
   1.107834509477772E-03   1.121769352170280E-03   1.135879473606323E-03
   1.150167078521081E-03   1.164634399381892E-03   1.179283696737073E-03
   1.194117259569140E-03   1.209137405652466E-03   1.224346481915434E-03
   1.239746864807154E-03   1.255340960668783E-03   1.271131206109529E-03
   1.287120068387366E-03   1.303310045794554E-03   1.319703668048003E-03
   1.336303496684542E-03   1.353112125461169E-03   1.370132180760328E-03
   1.387366322000285E-03   1.404817242050674E-03   1.422487667653256E-03
   1.440380359847982E-03   1.458498114404412E-03   1.476843762258554E-03
   1.495420169955211E-03   1.514230240095880E-03   1.533276911792290E-03
   1.552563161125643E-03   1.572092001611636E-03   1.591866484671326E-03
   1.611889700107924E-03   1.632164776589580E-03   1.652694882138242E-03
   1.673483224624673E-03   1.694533052269678E-03   1.715847654151656E-03
   1.737430360720513E-03   1.759284544318064E-03   1.781413619704956E-03
   1.803821044594239E-03   1.826510320191645E-03   1.849484991742644E-03
   1.872748649086410E-03   1.896304927216733E-03   1.920157506849993E-03
   1.944310115000291E-03   1.968766525561788E-03   1.993530559898391E-03
   2.018606087440846E-03   2.043997026291349E-03   2.069707343835756E-03
   2.095741057363489E-03   2.122102234695254E-03   2.148794994818641E-03
   2.175823508531724E-03   2.203191999094763E-03   2.230904742890091E-03
   2.258966070090305E-03   2.287380365334874E-03   2.316152068415235E-03
   2.345285674968537E-03   2.374785737180073E-03   2.404656864494583E-03
   2.434903724336482E-03   2.465531042839157E-03   2.496543605583440E-03
   2.527946258345352E-03   2.559743907853278E-03   2.591941522554644E-03
   2.624544133392254E-03   2.657556834590386E-03   2.690984784450763E-03
   2.724833206158561E-03   2.759107388598539E-03   2.793812687181430E-03
   2.828954524680751E-03   2.864538392080107E-03   2.900569849431174E-03
   2.937054526722470E-03   2.973998124759047E-03   3.011406416053267E-03
   3.049285245726749E-03   3.087640532423695E-03   3.126478269235685E-03
   3.165804524638113E-03   3.205625443438392E-03   3.245947247736108E-03
   3.286776237895212E-03   3.328118793528486E-03   3.369981374494359E-03
   3.412370521906275E-03   3.455292859154763E-03   3.498755092942341E-03
   3.542764014331465E-03   3.587326499805637E-03   3.632449512343874E-03
   3.678140102508692E-03   3.724405409547763E-03   3.771252662509437E-03
   3.818689181372300E-03   3.866722378188935E-03   3.915359758244071E-03
   3.964608921227294E-03   4.014477562420520E-03   4.064973473900391E-03
   4.116104545755808E-03   4.167878767320783E-03   4.220304228422767E-03
   4.273389120646717E-03   4.327141738615048E-03   4.381570481283670E-03
   4.436683853254372E-03   4.492490466103648E-03   4.548999039728296E-03
   4.606218403707910E-03   4.664157498684526E-03   4.722825377759616E-03
   4.782231207908645E-03   4.842384271413434E-03   4.903293967312539E-03
   4.964969812869861E-03   5.027421445061757E-03   5.090658622082814E-03
   5.154691224870596E-03   5.219529258649565E-03   5.285182854494408E-03
   5.351662270913059E-03   5.418977895449581E-03   5.487140246307263E-03
   5.556159973992105E-03   5.626047862976973E-03   5.696814833386720E-03
   5.768471942704442E-03   5.841030387499260E-03   5.914501505175794E-03
   5.988896775745651E-03   6.064227823621231E-03   6.140506419432019E-03
   6.217744481863800E-03   6.295954079520971E-03   6.375147432812280E-03
   6.455336915860311E-03   6.536535058434929E-03   6.618754547911112E-03
   6.702008231251366E-03   6.786309117013089E-03   6.871670377381205E-03
   6.958105350226308E-03   7.045627541188760E-03   7.134250625788963E-03
   7.223988451564185E-03   7.314855040232288E-03   7.406864589882618E-03
   7.500031477194497E-03   7.594370259683621E-03   7.689895677976681E-03
   7.786622658114647E-03   7.884566313884948E-03   7.983741949183070E-03
   8.084165060403801E-03   8.185851338862574E-03   8.288816673247296E-03
   8.393077152100942E-03   8.498649066335450E-03   8.605548911777209E-03
   8.713793391744551E-03   8.823399419657712E-03   8.934384121681540E-03
   9.046764839401525E-03   9.160559132533453E-03   9.275784781667136E-03
   9.392459791044690E-03   9.510602391373704E-03   9.630231042675843E-03
   9.751364437171256E-03   9.874021502199272E-03   9.998221403175869E-03
   1.012398354658825E-02   1.025132758302719E-02   1.038027341025747E-02
   1.051084117632692E-02   1.064305128271466E-02   1.077692438751877E-02
   1.091248140868426E-02   1.104974352727147E-02   1.118873219076569E-02
   1.132946911642837E-02   1.147197629469048E-02   1.161627599258855E-02
   1.176239075724396E-02   1.191034341938595E-02   1.206015709691902E-02
   1.221185519853505E-02   1.236546142737107E-02   1.252099978471284E-02
   1.267849457374514E-02   1.283797040334919E-02   1.299945219194782E-02
   1.316296517139903E-02   1.332853489093853E-02   1.349618722117185E-02
   1.366594835811669E-02   1.383784482729608E-02   1.401190348788304E-02
   1.418815153689743E-02   1.436661651345545E-02   1.454732630307284E-02
   1.473030914202184E-02   1.491559362174332E-02   1.510320869331422E-02
   1.529318367197115E-02   1.548554824169106E-02   1.568033245982933E-02
   1.587756676181633E-02   1.607728196591303E-02   1.627950927802637E-02
   1.648428029658534E-02   1.669162701747817E-02   1.690158183905187E-02
   1.711417756717445E-02   1.732944742036096E-02   1.754742503496394E-02
   1.776814447042915E-02   1.799164021461744E-02   1.821794718919354E-02
   1.844710075508263E-02   1.867913671799564E-02   1.891409133402383E-02
   1.915200131530399E-02   1.939290383575471E-02   1.963683653688492E-02
   1.988383753367549E-02   2.013394542053468E-02   2.038719927732865E-02
   2.064363867548779E-02   2.090330368418977E-02   2.116623487662051E-02
   2.143247333631377E-02   2.170206066357054E-02   2.197503898195917E-02
   2.225145094489728E-02   2.253133974231648E-02   2.281474910741078E-02
   2.310172332347008E-02   2.339230723079950E-02   2.368654623372573E-02
   2.398448630769164E-02   2.428617400643996E-02   2.459165646928738E-02
   2.490098142849024E-02   2.521419721670273E-02   2.553135277452902E-02
   2.585249765817028E-02   2.617768204716795E-02   2.650695675224439E-02
   2.684037322324217E-02   2.717798355716326E-02   2.751984050630920E-02
   2.786599748652380E-02   2.821650858553949E-02   2.857142857142857E-02
   2.893081290116099E-02   2.929471772926941E-02   2.966319991662359E-02
   3.003631703931499E-02   3.041412739765312E-02   3.079669002527519E-02
   3.118406469837006E-02   3.157631194501852E-02   3.197349305465089E-02
   3.237567008762361E-02   3.278290588491636E-02   3.319526407795096E-02
   3.361280909853404E-02   3.403560618892454E-02   3.446372141202802E-02
   3.489722166171914E-02   3.533617467329386E-02   3.578064903405329E-02
   3.623071419402058E-02   3.668644047679261E-02   3.714789909052833E-02
   3.761516213907491E-02   3.808830263323439E-02   3.856739450217155E-02
   3.905251260496561E-02   3.954373274230719E-02   4.004113166834211E-02
   4.054478710266451E-02   4.105477774246073E-02   4.157118327480575E-02
   4.209408438911474E-02   4.262356278975060E-02   4.315970120879067E-02
   4.370258341895371E-02   4.425229424668952E-02   4.480891958543341E-02
   4.537254640902697E-02   4.594326278530811E-02   4.652115788987175E-02
   4.710632202000366E-02   4.769884660878980E-02   4.829882423940263E-02
   4.890634865956758E-02   4.952151479621133E-02   5.014441877029424E-02
   5.077515791182968E-02   5.141383077509169E-02   5.206053715401457E-02
   5.271537809778575E-02   5.337845592663493E-02   5.404987424782200E-02
   5.472973797182562E-02   5.541815332873586E-02   5.611522788485281E-02
   5.682107055949406E-02   5.753579164201363E-02   5.825950280903473E-02
   5.899231714189965E-02   5.973434914433877E-02   6.048571476036214E-02
   6.124653139237599E-02   6.201691791952694E-02   6.279699471627723E-02
   6.358688367121340E-02   6.438670820609167E-02   6.519659329512298E-02
   6.601666548450014E-02   6.684705291217120E-02   6.768788532786119E-02
   6.853929411334565E-02   6.940141230297968E-02   7.027437460448431E-02
   7.115831741999520E-02   7.205337886737570E-02   7.295969880179791E-02
   7.387741883759562E-02   7.480668237039148E-02   7.574763459950308E-02
   7.670042255063063E-02   7.766519509882985E-02   7.864210299177449E-02
   7.963129887331004E-02   8.063293730730570E-02   8.164717480180474E-02
   8.267416983347889E-02   8.371408287239157E-02   8.476707640707053E-02
   8.583331496989806E-02   8.691296516281902E-02   8.800619568337231E-02
   8.911317735105130E-02   9.023408313399339E-02   9.136908817600785E-02
   9.251836982394181E-02   9.368210765539067E-02   9.486048350675860E-02
   9.605368150166944E-02   9.726188807973765E-02   9.848529202569935E-02
   9.972408449890975E-02   1.009784590632135E-01   1.022486117171880E-01
   1.035347409247697E-01   1.048370476462642E-01   1.061557353697458E-01
   1.074910101428547E-01   1.088430806049904E-01   1.102121580199135E-01
   1.115984563087559E-01   1.130021920834451E-01   1.144235846805523E-01
   1.158628561955622E-01   1.173202315175775E-01   1.187959383644575E-01
   1.202902073183989E-01   1.218032718619664E-01   1.233353684145727E-01
   1.248867363694216E-01   1.264576181309125E-01   1.280482591525161E-01
   1.296589079751288E-01   1.312898162659054E-01   1.329412388575848E-01
   1.346134337883070E-01   1.363066623419315E-01   1.380211890888652E-01
   1.397572819274002E-01   1.415152121255747E-01   1.432952543635589E-01
   1.450976867765738E-01   1.469227909983512E-01   1.487708522051386E-01
   1.506421591602597E-01   1.525370042592337E-01   1.544556835754619E-01
   1.563984969064916E-01   1.583657478208578E-01   1.603577437055187E-01
   1.623747958138842E-01   1.644172193144494E-01   1.664853333400423E-01
   1.685794610376862E-01   1.706999296190949E-01   1.728470704117986E-01
   1.750212189109139E-01   1.772227148315678E-01   1.794519021619762E-01
   1.817091292171951E-01   1.839947486935447E-01   1.863091177237175E-01
   1.886525979325838E-01   1.910255554936935E-01   1.934283611864935E-01
   1.958613904542624E-01   1.983250234627724E-01   2.008196451596943E-01
   2.033456453347428E-01   2.059034186805847E-01   2.084933648545096E-01
   2.111158885408757E-01   2.137713995143453E-01   2.164603127039100E-01
   2.191830482577265E-01   2.219400316087651E-01   2.247316935412826E-01
   2.275584702581366E-01   2.304208034489393E-01   2.333191403590756E-01
   2.362539338595850E-01   2.392256425179219E-01   2.422347306696109E-01
   2.452816684907971E-01   2.483669320717143E-01   2.514910034910747E-01
   2.546543708913925E-01   2.578575285552609E-01   2.611009769825808E-01
   2.643852229687683E-01   2.677107796839410E-01   2.710781667531008E-01
   2.744879103373289E-01   2.779405432159968E-01   2.814366048700166E-01
   2.849766415661351E-01   2.885612064422872E-01   2.921908595940289E-01
   2.958661681620484E-01   2.995877064207877E-01   3.033560558681717E-01
   3.071718053164673E-01   3.110355509842900E-01   3.149478965897601E-01
   3.189094534448390E-01   3.229208405508454E-01   3.269826846951749E-01
   3.310956205492401E-01   3.352602907676347E-01   3.394773460885541E-01
   3.437474454354725E-01   3.480712560200993E-01   3.524494534466362E-01
   3.568827218173375E-01   3.613717538394063E-01   3.659172509332297E-01
   3.705199233419753E-01   3.751804902425723E-01   3.798996798580797E-01
   3.846782295714774E-01   3.895168860408790E-01   3.944164053162027E-01
   3.993775529573042E-01   4.044011041535945E-01   4.094878438451700E-01
   4.146385668454550E-01   4.198540779653983E-01   4.251351921392243E-01
   4.304827345517655E-01   4.358975407674051E-01   4.413804568606293E-01
   4.469323395482335E-01   4.525540563231838E-01   4.582464855901622E-01
   4.640105168028245E-01   4.698470506027732E-01   4.757569989602898E-01
   4.817412853168300E-01   4.878008447293103E-01   4.939366240162190E-01
   5.001495819055511E-01   5.064406891846184E-01   5.128109288517331E-01
   5.192612962698019E-01   5.257927993218592E-01   5.324064585685433E-01
   5.391033074075681E-01   5.458843922351905E-01   5.527507726097091E-01
   5.597035214170292E-01   5.667437250382952E-01   5.738724835196477E-01
   5.810909107441037E-01   5.884001346056010E-01   5.958012971852410E-01
   6.032955549297322E-01   6.108840788320955E-01   6.185680546146307E-01
   6.263486829141849E-01   6.342271794697618E-01   6.422047753124750E-01
   6.502827169579065E-01   6.584622666008743E-01   6.667447023126492E-01
   6.751313182406643E-01   6.836234248107186E-01   6.922223489317423E-01
   7.009294342031249E-01   7.097460411246528E-01   7.186735473090970E-01
   7.277133476974599E-01   7.368668547769447E-01   7.461354988016570E-01
   7.555207280160801E-01   7.650240088813759E-01   7.746468263045116E-01
   7.843906838702885E-01   7.942571040762769E-01   8.042476285707044E-01
   8.143638183933519E-01   8.246072542194581E-01   8.349795366067126E-01
   8.454822862453423E-01   8.561171442113436E-01   8.668857722229131E-01
   8.777898529000838E-01   8.888310900276475E-01   9.000112088213704E-01
   9.113319561975571E-01   9.227951010460207E-01   9.344024345064621E-01
   9.461557702483517E-01   9.580569447543132E-01   9.701078176070729E-01
   9.823102717800350E-01   9.946662139314871E-01   1.007177574702530E+00
   1.019846309018740E+00   1.032674396395627E+00   1.045663841247944E+00
   1.058816673202874E+00   1.072134947417172E+00   1.085620744898280E+00
   1.099276172829490E+00   1.113103364899201E+00   1.127104481634301E+00
   1.141281710737770E+00   1.155637267430498E+00   1.170173394797423E+00
   1.184892364138023E+00   1.199796475321200E+00   1.214888057144651E+00
   1.230169467698742E+00   1.245643094734957E+00   1.261311356039008E+00
   1.277176699808596E+00   1.293241605035965E+00   1.309508581895243E+00
   1.325980172134656E+00   1.342658949473696E+00   1.359547520005249E+00
   1.376648522602823E+00   1.393964629332870E+00   1.411498545872291E+00
   1.429253011931223E+00   1.447230801681105E+00   1.465434724188163E+00
   1.483867623852328E+00   1.502532380851670E+00   1.521431911592448E+00
   1.540569169164788E+00   1.559947143804121E+00   1.579568863358414E+00
   1.599437393761262E+00   1.619555839510968E+00   1.639927344155607E+00
   1.660555090784228E+00   1.681442302524213E+00   1.702592243044885E+00
   1.724008217067487E+00   1.745693570881525E+00   1.767651692867654E+00
   1.789886014027112E+00   1.812400008517810E+00   1.835197194197199E+00
   1.858281133171915E+00   1.881655432354391E+00   1.905323744026435E+00
   1.929289766409890E+00   1.953557244244521E+00   1.978129969373104E+00
   2.003011781333939E+00   2.028206567960769E+00   2.053718265990259E+00
   2.079550861677136E+00   2.105708391417024E+00   2.132194942377169E+00
   2.159014653135048E+00   2.186171714325025E+00   2.213670369293171E+00
   2.241514914760261E+00   2.269709701493181E+00   2.298259134984723E+00
   2.327167676141947E+00   2.356439841983232E+00   2.386080206344036E+00
   2.416093400591600E+00   2.446484114348590E+00   2.477257096225854E+00
   2.508417154564426E+00   2.539969158186809E+00   2.571918037157766E+00
   2.604268783554641E+00   2.637026452247368E+00   2.670196161688336E+00
   2.703783094712119E+00   2.737792499345339E+00   2.772229689626670E+00
   2.807100046437145E+00   2.842409018340970E+00   2.878162122436832E+00
   2.914364945219991E+00   2.951023143455167E+00   2.988142445060407E+00
   3.025728650002115E+00   3.063787631201273E+00   3.102325335451131E+00
   3.141347784346389E+00   3.180861075224067E+00   3.220871382116266E+00
   3.261384956714830E+00   3.302408129348219E+00   3.343947309970626E+00
   3.386008989163524E+00   3.428599739149873E+00   3.471726214820999E+00
   3.515395154776473E+00   3.559613382377013E+00   3.604387806810633E+00
   3.649725424172258E+00   3.695633318556828E+00   3.742118663166246E+00
   3.789188721430190E+00   3.836850848141015E+00   3.885112490603003E+00
   3.933981189795964E+00   3.983464581553576E+00   4.033570397756486E+00
   4.084306467540401E+00   4.135680718519462E+00   4.187701178024891E+00
   4.240375974359331E+00   4.293713338066885E+00   4.347721603219132E+00
   4.402409208717398E+00   4.457784699611289E+00   4.513856728433927E+00
   4.570634056553905E+00   4.628125555544239E+00   4.686340208568628E+00
   4.745287111785032E+00   4.804975475767013E+00   4.865414626942890E+00
   4.926614009052981E+00   4.988583184625270E+00   5.051331836469498E+00
   5.114869769190190E+00   5.179206910718611E+00   5.244353313864000E+00
   5.310319157884409E+00   5.377114750077157E+00   5.444750527389428E+00
   5.513237058049046E+00   5.582585043215741E+00   5.652805318653307E+00
   5.723908856422624E+00   5.795906766596140E+00   5.868810298993810E+00
   5.942630844940875E+00   6.017379939047850E+00   6.093069261012745E+00
   6.169710637446117E+00   6.247316043718977E+00   6.325897605833919E+00
   6.405467602319923E+00   6.486038466150803E+00   6.567622786687967E+00
   6.650233311647494E+00   6.733882949091960E+00   6.818584769447424E+00
   6.904352007545622E+00   6.991198064692011E+00   7.079136510759723E+00
   7.168181086309845E+00   7.258345704738494E+00   7.349644454450713E+00
   7.442091601061908E+00   7.535701589626836E+00   7.630489046896632E+00
   7.726468783604371E+00   7.823655796779159E+00   7.922065272089542E+00
   8.021712586216273E+00   8.122613309254884E+00   8.224783207148667E+00
   8.328238244152004E+00   8.432994585324924E+00   8.539068599058874E+00
   8.646476859634282E+00   8.755236149810417E+00   8.865363463447611E+00
   8.976876008162691E+00   9.089791208017658E+00   9.204126706242187E+00
   9.319900367990524E+00   9.437130283132825E+00   9.555834769081859E+00
   9.676032373655072E+00   9.797741877972697E+00   9.920982299392431E+00
   1.004577289448082E+01   1.017213316202226E+01   1.030008284606565E+01
   1.042964193900940E+01   1.056083068472541E+01   1.069366958172206E+01
   1.082817938634730E+01   1.096438111603178E+01   1.110229605257282E+01
   1.124194574545990E+01   1.138335201524160E+01   1.152653695693529E+01
   1.167152294347944E+01   1.181833262922939E+01   1.196698895349727E+01
   1.211751514413613E+01   1.226993472116954E+01   1.242427150046653E+01
   1.258054959746283E+01   1.273879343092907E+01   1.289902772678616E+01
   1.306127752196883E+01   1.322556816833770E+01   1.339192533664049E+01
   1.356037502052323E+01   1.373094354059170E+01   1.390365754852421E+01
   1.407854403123591E+01   1.425563031509549E+01   1.443494407019513E+01
   1.461651331467383E+01   1.480036641909549E+01   1.498653211088173E+01
   1.517503947880060E+01   1.536591797751193E+01   1.555919743216941E+01
   1.575490804308111E+01   1.595308039042817E+01   1.615374543904301E+01
   1.635693454324777E+01   1.656267945175333E+01   1.677101231262025E+01
   1.698196567828195E+01   1.719557251063092E+01   1.741186618616937E+01
   1.763088050122411E+01   1.785264967722745E+01   1.807720836606440E+01
   1.830459165548688E+01   1.853483507459654E+01   1.876797459939599E+01
   1.900404665841034E+01   1.924308813837913E+01   1.948513639001987E+01
   1.973022923386441E+01   1.997840496616817E+01   2.022970236489427E+01
   2.048416069577257E+01   2.074181971843490E+01   2.100271969262782E+01
   2.126690138450306E+01   2.153440607298747E+01   2.180527555623290E+01
   2.207955215814714E+01   2.235727873500733E+01   2.263849868215606E+01
   2.292325594078225E+01   2.321159500478697E+01   2.350356092773550E+01
   2.379919932989739E+01   2.409855640537439E+01   2.440167892931862E+01
   2.470861426524120E+01   2.501941037241274E+01   2.533411581335741E+01
   2.565277976144052E+01   2.597545200855235E+01   2.630218297288803E+01
   2.663302370682538E+01   2.696802590490228E+01   2.730724191189364E+01
   2.765072473099076E+01   2.799852803208298E+01   2.835070616014361E+01
   2.870731414372177E+01   2.906840770354032E+01   2.943404326120268E+01
   2.980427794800869E+01   3.017916961388129E+01   3.055877683640612E+01
   3.094315892998389E+01   3.133237595509882E+01   3.172648872770300E+01
   3.212555882871887E+01   3.252964861366175E+01   3.293882122238253E+01
   3.335314058893387E+01   3.377267145155977E+01   3.419747936281096E+01
   3.462763069978795E+01   3.506319267451219E+01   3.550423334442845E+01
   3.595082162303876E+01   3.640302729067012E+01   3.686092100537824E+01
   3.732457431398751E+01   3.779405966327079E+01   3.826945041126912E+01
   3.875082083875395E+01   3.923824616083407E+01   3.973180253870757E+01