
     Program BANDS v.7.1 starts on 22Sep2023 at 10:20:21 

     This program is part of the open-source Quantum ESPRESSO suite
     for quantum simulation of materials; please cite
         "P. Giannozzi et al., J. Phys.:Condens. Matter 21 395502 (2009);
         "P. Giannozzi et al., J. Phys.:Condens. Matter 29 465901 (2017);
         "P. Giannozzi et al., J. Chem. Phys. 152 154105 (2020);
          URL http://www.quantum-espresso.org", 
     in publications or presentations arising from this work. More details at
     http://www.quantum-espresso.org/quote

     Parallel version (MPI & OpenMP), running on      10 processor cores
     Number of MPI processes:                10
     Threads/MPI process:                     1

     MPI processes distributed on     1 nodes
     R & G space division:  proc/nbgrp/npool/nimage =      10
     11778 MiB available memory on the printing compute node when the environment starts


     Reading xml data from directory:

     ./work/pwscf.save/
     file S.pz-n-kjpaw_psl.1.0.0.UPF: wavefunction(s)  3S 3P renormalized
     file Fe.pz-spn-kjpaw_psl.1.0.0.UPF: wavefunction(s)  3P 3D renormalized

     IMPORTANT: XC functional enforced from input :
     Exchange-correlation= PZ
                           (   1   1   0   0   0   0   0)
     Any further DFT definition will be discarded
     Please, verify this is what you really want


     Parallelization info
     --------------------
     sticks:   dense  smooth     PW     G-vecs:    dense   smooth      PW
     Min         411     236     67                19790     8572    1313
     Max         413     237     68                19791     8575    1314
     Sum        4117    2361    673               197909    85735   13133

     Using Slab Decomposition

     Reading collected, re-writing distributed wavefunctions
     high-symmetry point:  0.5000 0.2500 0.7500   x coordinate   0.0000
     high-symmetry point:  0.0000 0.5000 0.0000   x coordinate   0.9354
     high-symmetry point:  0.0000 0.0000 0.0000   x coordinate   1.4354
     high-symmetry point:  0.0000 0.5000 0.5000   x coordinate   2.1425
     high-symmetry point:  0.7500 0.5000 0.2500   x coordinate   2.9331
     high-symmetry point:  0.7500 0.3750 0.3750   x coordinate   3.1099

     Plottable bands (eV) written to file bands.out.gnu
     Bands written to file bands.out

 **************************************************************************

                    xk=(   0.50000,   0.25000,   0.75000  )

     zone border point and non-symmorphic group 
     symmetry decomposition not available

 **************************************************************************

 **************************************************************************

                    xk=(   0.47500,   0.26250,   0.71250  )

     point group C_1 (1)    
     there are  1 classes
     the character table:

       E    
A      1.00

     the symmetry operations in each class and the name of the first element:

     E        1
                                                                 

     Band symmetry, C_1 (1)     point group:

     e(  1 -  4) =    -73.01170  eV     4   -->   4 A              
     e(  5 -  5) =    -39.58846  eV     1   --> A              
     e(  6 -  6) =    -39.58836  eV     1   --> A              
     e(  7 -  8) =    -39.58801  eV     2   -->   2 A              
     e(  9 - 10) =    -39.58645  eV     2   -->   2 A              
     e( 11 - 12) =    -39.58606  eV     2   -->   2 A              
     e( 13 - 16) =    -39.33291  eV     4   -->   4 A              
     e( 17 - 17) =     -3.06382  eV     1   --> A              
     e( 18 - 18) =     -2.93397  eV     1   --> A              
     e( 19 - 19) =     -2.36808  eV     1   --> A              
     e( 20 - 20) =     -2.35881  eV     1   --> A              
     e( 21 - 21) =      0.24882  eV     1   --> A              
     e( 22 - 22) =      0.26525  eV     1   --> A              
     e( 23 - 23) =      0.54098  eV     1   --> A              
     e( 24 - 24) =      0.56417  eV     1   --> A              
     e( 25 - 25) =      5.36474  eV     1   --> A              
     e( 26 - 26) =      5.42738  eV     1   --> A              
     e( 27 - 27) =      6.16463  eV     1   --> A              
     e( 28 - 28) =      6.22413  eV     1   --> A              
     e( 29 - 29) =      6.47218  eV     1   --> A              
     e( 30 - 30) =      6.52318  eV     1   --> A              
     e( 31 - 31) =      7.73172  eV     1   --> A              
     e( 32 - 32) =      7.81263  eV     1   --> A              
     e( 33 - 33) =      8.12467  eV     1   --> A              
     e( 34 - 34) =      8.27296  eV     1   --> A              
     e( 35 - 35) =      8.51723  eV     1   --> A              
     e( 36 - 36) =      8.55190  eV     1   --> A              
     e( 37 - 37) =      9.29225  eV     1   --> A              
     e( 38 - 38) =      9.33935  eV     1   --> A              
     e( 39 - 39) =      9.77364  eV     1   --> A              
     e( 40 - 40) =      9.81686  eV     1   --> A              
     e( 41 - 41) =      9.94381  eV     1   --> A              
     e( 42 - 42) =      9.94751  eV     1   --> A              
     e( 43 - 43) =     10.44311  eV     1   --> A              
     e( 44 - 44) =     10.57304  eV     1   --> A              
     e( 45 - 45) =     11.60150  eV     1   --> A              
     e( 46 - 46) =     11.62977  eV     1   --> A              
     e( 47 - 47) =     11.72704  eV     1   --> A              
     e( 48 - 48) =     11.77903  eV     1   --> A              
     e( 49 - 49) =     11.82582  eV     1   --> A              
     e( 50 - 50) =     11.84273  eV     1   --> A              
     e( 51 - 51) =     12.03157  eV     1   --> A              
     e( 52 - 52) =     12.06370  eV     1   --> A              
     e( 53 - 53) =     12.25422  eV     1   --> A              
     e( 54 - 54) =     12.29116  eV     1   --> A              
     e( 55 - 55) =     12.41094  eV     1   --> A              
     e( 56 - 56) =     12.42887  eV     1   --> A              
     e( 57 - 57) =     13.96905  eV     1   --> A              
     e( 58 - 58) =     14.05862  eV     1   --> A              
     e( 59 - 59) =     14.43158  eV     1   --> A              
     e( 60 - 60) =     14.45474  eV     1   --> A              
     e( 61 - 61) =     14.59164  eV     1   --> A              
     e( 62 - 62) =     14.60928  eV     1   --> A              
     e( 63 - 63) =     15.03347  eV     1   --> A              
     e( 64 - 64) =     15.06109  eV     1   --> A              
     e( 65 - 65) =     15.49627  eV     1   --> A              
     e( 66 - 66) =     15.53510  eV     1   --> A              
     e( 67 - 67) =     15.85694  eV     1   --> A              
     e( 68 - 68) =     15.89269  eV     1   --> A              
     e( 69 - 69) =     18.94647  eV     1   --> A              
     e( 70 - 70) =     19.00021  eV     1   --> A              
     e( 71 - 71) =     19.40611  eV     1   --> A              
     e( 72 - 72) =     19.59347  eV     1   --> A              
     e( 73 - 73) =     19.78182  eV     1   --> A              
     e( 74 - 74) =     19.94661  eV     1   --> A              
     e( 75 - 75) =     20.74675  eV     1   --> A              
     e( 76 - 76) =     20.81451  eV     1   --> A              
     e( 77 - 77) =     20.86469  eV     1   --> A              
     e( 78 - 78) =     21.00423  eV     1   --> A              
     e( 79 - 79) =     21.51100  eV     1   --> A              
     e( 80 - 80) =     21.55190  eV     1   --> A              
     e( 81 - 81) =     22.05740  eV     1   --> A              
     e( 82 - 82) =     22.08447  eV     1   --> A              
     e( 83 - 83) =     22.57533  eV     1   --> A              
     e( 84 - 84) =     22.62959  eV     1   --> A              

 **************************************************************************

 **************************************************************************

                    xk=(   0.45000,   0.27500,   0.67500  )

     Band symmetry, C_1 (1)     point group:

     e(  1 -  4) =    -73.01168  eV     4   -->   4 A              
     e(  5 -  5) =    -39.58856  eV     1   --> A              
     e(  6 -  6) =    -39.58835  eV     1   --> A              
     e(  7 -  7) =    -39.58813  eV     1   --> A              
     e(  8 -  8) =    -39.58799  eV     1   --> A              
     e(  9 - 10) =    -39.58637  eV     2   -->   2 A              
     e( 11 - 12) =    -39.58601  eV     2   -->   2 A              
     e( 13 - 16) =    -39.33292  eV     4   -->   4 A              
     e( 17 - 17) =     -3.04773  eV     1   --> A              
     e( 18 - 18) =     -2.80345  eV     1   --> A              
     e( 19 - 19) =     -2.42582  eV     1   --> A              
     e( 20 - 20) =     -2.38917  eV     1   --> A              
     e( 21 - 21) =      0.20882  eV     1   --> A              
     e( 22 - 22) =      0.23997  eV     1   --> A              
     e( 23 - 23) =      0.45814  eV     1   --> A              
     e( 24 - 24) =      0.51599  eV     1   --> A              
     e( 25 - 25) =      5.38907  eV     1   --> A              
     e( 26 - 26) =      5.53575  eV     1   --> A              
     e( 27 - 27) =      6.06135  eV     1   --> A              
     e( 28 - 28) =      6.20748  eV     1   --> A              
     e( 29 - 29) =      6.55538  eV     1   --> A              
     e( 30 - 30) =      6.70528  eV     1   --> A              
     e( 31 - 31) =      7.63516  eV     1   --> A              
     e( 32 - 32) =      7.83543  eV     1   --> A              
     e( 33 - 33) =      8.06948  eV     1   --> A              
     e( 34 - 34) =      8.29205  eV     1   --> A              
     e( 35 - 35) =      8.47455  eV     1   --> A              
     e( 36 - 36) =      8.52359  eV     1   --> A              
     e( 37 - 37) =      9.37936  eV     1   --> A              
     e( 38 - 38) =      9.45639  eV     1   --> A              
     e( 39 - 39) =      9.78812  eV     1   --> A              
     e( 40 - 40) =      9.83191  eV     1   --> A              
     e( 41 - 41) =      9.96878  eV     1   --> A              
     e( 42 - 42) =     10.07117  eV     1   --> A              
     e( 43 - 43) =     10.39736  eV     1   --> A              
     e( 44 - 44) =     10.63362  eV     1   --> A              
     e( 45 - 45) =     11.55259  eV     1   --> A              
     e( 46 - 46) =     11.60764  eV     1   --> A              
     e( 47 - 47) =     11.70453  eV     1   --> A              
     e( 48 - 48) =     11.75481  eV     1   --> A              
     e( 49 - 49) =     11.78371  eV     1   --> A              
     e( 50 - 50) =     11.83947  eV     1   --> A              
     e( 51 - 51) =     12.00040  eV     1   --> A              
     e( 52 - 52) =     12.05626  eV     1   --> A              
     e( 53 - 53) =     12.21120  eV     1   --> A              
     e( 54 - 54) =     12.29423  eV     1   --> A              
     e( 55 - 55) =     12.37237  eV     1   --> A              
     e( 56 - 56) =     12.40736  eV     1   --> A              
     e( 57 - 57) =     13.93461  eV     1   --> A              
     e( 58 - 58) =     14.10201  eV     1   --> A              
     e( 59 - 59) =     14.38756  eV     1   --> A              
     e( 60 - 60) =     14.41298  eV     1   --> A              
     e( 61 - 61) =     14.57074  eV     1   --> A              
     e( 62 - 62) =     14.63295  eV     1   --> A              
     e( 63 - 63) =     15.01173  eV     1   --> A              
     e( 64 - 64) =     15.06674  eV     1   --> A              
     e( 65 - 65) =     15.49495  eV     1   --> A              
     e( 66 - 66) =     15.56464  eV     1   --> A              
     e( 67 - 67) =     15.84951  eV     1   --> A              
     e( 68 - 68) =     15.91094  eV     1   --> A              
     e( 69 - 69) =     18.92000  eV     1   --> A              
     e( 70 - 70) =     19.00034  eV     1   --> A              
     e( 71 - 71) =     19.33573  eV     1   --> A              
     e( 72 - 72) =     19.76217  eV     1   --> A              
     e( 73 - 73) =     19.86801  eV     1   --> A              
     e( 74 - 74) =     20.22182  eV     1   --> A              
     e( 75 - 75) =     20.58291  eV     1   --> A              
     e( 76 - 76) =     20.70269  eV     1   --> A              
     e( 77 - 77) =     20.93448  eV     1   --> A              
     e( 78 - 78) =     20.99598  eV     1   --> A              
     e( 79 - 79) =     21.29510  eV     1   --> A              
     e( 80 - 80) =     21.53040  eV     1   --> A              
     e( 81 - 81) =     21.99604  eV     1   --> A              
     e( 82 - 82) =     22.05427  eV     1   --> A              
     e( 83 - 83) =     22.40113  eV     1   --> A              
     e( 84 - 84) =     22.51291  eV     1   --> A              

 **************************************************************************

 **************************************************************************

                    xk=(   0.42500,   0.28750,   0.63750  )

     Band symmetry, C_1 (1)     point group:

     e(  1 -  4) =    -73.01166  eV     4   -->   4 A              
     e(  5 -  5) =    -39.58855  eV     1   --> A              
     e(  6 -  6) =    -39.58830  eV     1   --> A              
     e(  7 -  7) =    -39.58818  eV     1   --> A              
     e(  8 -  8) =    -39.58801  eV     1   --> A              
     e(  9 - 10) =    -39.58627  eV     2   -->   2 A              
     e( 11 - 12) =    -39.58597  eV     2   -->   2 A              
     e( 13 - 16) =    -39.33287  eV     4   -->   4 A              
     e( 17 - 17) =     -3.02048  eV     1   --> A              
     e( 18 - 18) =     -2.68280  eV     1   --> A              
     e( 19 - 19) =     -2.49667  eV     1   --> A              
     e( 20 - 20) =     -2.41323  eV     1   --> A              
     e( 21 - 21) =      0.17845  eV     1   --> A              
     e( 22 - 22) =      0.22104  eV     1   --> A              
     e( 23 - 23) =      0.38216  eV     1   --> A              
     e( 24 - 24) =      0.47370  eV     1   --> A              
     e( 25 - 25) =      5.41733  eV     1   --> A              
     e( 26 - 26) =      5.65734  eV     1   --> A              
     e( 27 - 27) =      5.96220  eV     1   --> A              
     e( 28 - 28) =      6.19185  eV     1   --> A              
     e( 29 - 29) =      6.62652  eV     1   --> A              
     e( 30 - 30) =      6.91514  eV     1   --> A              
     e( 31 - 31) =      7.45138  eV     1   --> A              
     e( 32 - 32) =      7.84181  eV     1   --> A              
     e( 33 - 33) =      8.08150  eV     1   --> A              
     e( 34 - 34) =      8.31268  eV     1   --> A              
     e( 35 - 35) =      8.42640  eV     1   --> A              
     e( 36 - 36) =      8.45997  eV     1   --> A              
     e( 37 - 37) =      9.47974  eV     1   --> A              
     e( 38 - 38) =      9.58258  eV     1   --> A              
     e( 39 - 39) =      9.75308  eV     1   --> A              
     e( 40 - 40) =      9.87538  eV     1   --> A              
     e( 41 - 41) =      9.99885  eV     1   --> A              
     e( 42 - 42) =     10.19052  eV     1   --> A              
     e( 43 - 43) =     10.35324  eV     1   --> A              
     e( 44 - 44) =     10.66102  eV     1   --> A              
     e( 45 - 45) =     11.50656  eV     1   --> A              
     e( 46 - 46) =     11.59756  eV     1   --> A              
     e( 47 - 47) =     11.69462  eV     1   --> A              
     e( 48 - 48) =     11.72402  eV     1   --> A              
     e( 49 - 49) =     11.75213  eV     1   --> A              
     e( 50 - 50) =     11.84885  eV     1   --> A              
     e( 51 - 51) =     11.95769  eV     1   --> A              
     e( 52 - 52) =     12.03134  eV     1   --> A              
     e( 53 - 53) =     12.17401  eV     1   --> A              
     e( 54 - 54) =     12.30352  eV     1   --> A              
     e( 55 - 55) =     12.33055  eV     1   --> A              
     e( 56 - 56) =     12.38156  eV     1   --> A              
     e( 57 - 57) =     13.91126  eV     1   --> A              
     e( 58 - 58) =     14.13933  eV     1   --> A              
     e( 59 - 59) =     14.30827  eV     1   --> A              
     e( 60 - 60) =     14.35108  eV     1   --> A              
     e( 61 - 61) =     14.60326  eV     1   --> A              
     e( 62 - 62) =     14.67547  eV     1   --> A              
     e( 63 - 63) =     14.99606  eV     1   --> A              
     e( 64 - 64) =     15.06125  eV     1   --> A              
     e( 65 - 65) =     15.49837  eV     1   --> A              
     e( 66 - 66) =     15.59349  eV     1   --> A              
     e( 67 - 67) =     15.84809  eV     1   --> A              
     e( 68 - 68) =     15.91997  eV     1   --> A              
     e( 69 - 69) =     18.92539  eV     1   --> A              
     e( 70 - 70) =     19.03661  eV     1   --> A              
     e( 71 - 71) =     19.26095  eV     1   --> A              
     e( 72 - 72) =     19.92510  eV     1   --> A              
     e( 73 - 73) =     19.97946  eV     1   --> A              
     e( 74 - 74) =     20.39946  eV     1   --> A              
     e( 75 - 75) =     20.50039  eV     1   --> A              
     e( 76 - 76) =     20.59651  eV     1   --> A              
     e( 77 - 77) =     20.92324  eV     1   --> A              
     e( 78 - 78) =     21.05489  eV     1   --> A              
     e( 79 - 79) =     21.13138  eV     1   --> A              
     e( 80 - 80) =     21.58958  eV     1   --> A              
     e( 81 - 81) =     21.90638  eV     1   --> A              
     e( 82 - 82) =     21.92642  eV     1   --> A              
     e( 83 - 83) =     22.25314  eV     1   --> A              
     e( 84 - 84) =     22.47340  eV     1   --> A              

 **************************************************************************

 **************************************************************************

                    xk=(   0.40000,   0.30000,   0.60000  )

     Band symmetry, C_1 (1)     point group:

     e(  1 -  4) =    -73.01165  eV     4   -->   4 A              
     e(  5 -  5) =    -39.58857  eV     1   --> A              
     e(  6 -  7) =    -39.58833  eV     2   -->   2 A              
     e(  8 -  8) =    -39.58808  eV     1   --> A              
     e(  9 - 10) =    -39.58624  eV     2   -->   2 A              
     e( 11 - 12) =    -39.58595  eV     2   -->   2 A              
     e( 13 - 16) =    -39.33290  eV     4   -->   4 A              
     e( 17 - 17) =     -2.98261  eV     1   --> A              
     e( 18 - 18) =     -2.58284  eV     1   --> A              
     e( 19 - 19) =     -2.57539  eV     1   --> A              
     e( 20 - 20) =     -2.43024  eV     1   --> A              
     e( 21 - 21) =      0.15803  eV     1   --> A              
     e( 22 - 22) =      0.20273  eV     1   --> A              
     e( 23 - 23) =      0.33155  eV     1   --> A              
     e( 24 - 24) =      0.43706  eV     1   --> A              
     e( 25 - 25) =      5.45084  eV     1   --> A              
     e( 26 - 26) =      5.74584  eV     1   --> A              
     e( 27 - 27) =      5.91412  eV     1   --> A              
     e( 28 - 28) =      6.17967  eV     1   --> A              
     e( 29 - 29) =      6.67984  eV     1   --> A              
     e( 30 - 30) =      7.08075  eV     1   --> A              
     e( 31 - 31) =      7.29476  eV     1   --> A              
     e( 32 - 32) =      7.84954  eV     1   --> A              
     e( 33 - 33) =      8.07775  eV     1   --> A              
     e( 34 - 34) =      8.30550  eV     1   --> A              
     e( 35 - 35) =      8.39251  eV     1   --> A              
     e( 36 - 36) =      8.40559  eV     1   --> A              
     e( 37 - 37) =      9.56898  eV     1   --> A              
     e( 38 - 38) =      9.70516  eV     1   --> A              
     e( 39 - 39) =      9.71841  eV     1   --> A              
     e( 40 - 40) =      9.91052  eV     1   --> A              
     e( 41 - 41) =     10.04308  eV     1   --> A              
     e( 42 - 42) =     10.22576  eV     1   --> A              
     e( 43 - 43) =     10.35847  eV     1   --> A              
     e( 44 - 44) =     10.65685  eV     1   --> A              
     e( 45 - 45) =     11.48581  eV     1   --> A              
     e( 46 - 46) =     11.58464  eV     1   --> A              
     e( 47 - 47) =     11.67311  eV     1   --> A              
     e( 48 - 48) =     11.70151  eV     1   --> A              
     e( 49 - 49) =     11.74869  eV     1   --> A              
     e( 50 - 50) =     11.86035  eV     1   --> A              
     e( 51 - 51) =     11.90775  eV     1   --> A              
     e( 52 - 52) =     11.99226  eV     1   --> A              
     e( 53 - 53) =     12.15493  eV     1   --> A              
     e( 54 - 54) =     12.28938  eV     1   --> A              
     e( 55 - 55) =     12.31694  eV     1   --> A              
     e( 56 - 56) =     12.35944  eV     1   --> A              
     e( 57 - 57) =     13.90532  eV     1   --> A              
     e( 58 - 58) =     14.17272  eV     1   --> A              
     e( 59 - 59) =     14.21427  eV     1   --> A              
     e( 60 - 60) =     14.30046  eV     1   --> A              
     e( 61 - 61) =     14.65229  eV     1   --> A              
     e( 62 - 62) =     14.70932  eV     1   --> A              
     e( 63 - 63) =     14.99170  eV     1   --> A              
     e( 64 - 64) =     15.04070  eV     1   --> A              
     e( 65 - 65) =     15.51778  eV     1   --> A              
     e( 66 - 66) =     15.61881  eV     1   --> A              
     e( 67 - 67) =     15.85013  eV     1   --> A              
     e( 68 - 68) =     15.91447  eV     1   --> A              
     e( 69 - 69) =     18.94651  eV     1   --> A              
     e( 70 - 70) =     19.12541  eV     1   --> A              
     e( 71 - 71) =     19.18883  eV     1   --> A              
     e( 72 - 72) =     19.99017  eV     1   --> A              
     e( 73 - 73) =     20.07328  eV     1   --> A              
     e( 74 - 74) =     20.28470  eV     1   --> A              
     e( 75 - 75) =     20.44834  eV     1   --> A              
     e( 76 - 76) =     20.74619  eV     1   --> A              
     e( 77 - 77) =     20.91411  eV     1   --> A              
     e( 78 - 78) =     21.02808  eV     1   --> A              
     e( 79 - 79) =     21.22207  eV     1   --> A              
     e( 80 - 80) =     21.63781  eV     1   --> A              
     e( 81 - 81) =     21.77936  eV     1   --> A              
     e( 82 - 82) =     21.80118  eV     1   --> A              
     e( 83 - 83) =     22.14331  eV     1   --> A              
     e( 84 - 84) =     22.45560  eV     1   --> A              

 **************************************************************************

 **************************************************************************

                    xk=(   0.37500,   0.31250,   0.56250  )

     Band symmetry, C_1 (1)     point group:

     e(  1 -  4) =    -73.01166  eV     4   -->   4 A              
     e(  5 -  5) =    -39.58860  eV     1   --> A              
     e(  6 -  6) =    -39.58842  eV     1   --> A              
     e(  7 -  7) =    -39.58827  eV     1   --> A              
     e(  8 -  8) =    -39.58815  eV     1   --> A              
     e(  9 - 10) =    -39.58624  eV     2   -->   2 A              
     e( 11 - 12) =    -39.58595  eV     2   -->   2 A              
     e( 13 - 16) =    -39.33291  eV     4   -->   4 A              
     e( 17 - 17) =     -2.93482  eV     1   --> A              
     e( 18 - 18) =     -2.67113  eV     1   --> A              
     e( 19 - 19) =     -2.49942  eV     1   --> A              
     e( 20 - 20) =     -2.43969  eV     1   --> A              
     e( 21 - 21) =      0.14762  eV     1   --> A              
     e( 22 - 22) =      0.17873  eV     1   --> A              
     e( 23 - 23) =      0.32261  eV     1   --> A              
     e( 24 - 24) =      0.40672  eV     1   --> A              
     e( 25 - 25) =      5.48942  eV     1   --> A              
     e( 26 - 26) =      5.70294  eV     1   --> A              
     e( 27 - 27) =      6.00579  eV     1   --> A              
     e( 28 - 28) =      6.17216  eV     1   --> A              
     e( 29 - 29) =      6.71055  eV     1   --> A              
     e( 30 - 30) =      6.95784  eV     1   --> A              
     e( 31 - 31) =      7.43088  eV     1   --> A              
     e( 32 - 32) =      7.85207  eV     1   --> A              
     e( 33 - 33) =      8.04442  eV     1   --> A              
     e( 34 - 34) =      8.21343  eV     1   --> A              
     e( 35 - 35) =      8.39956  eV     1   --> A              
     e( 36 - 36) =      8.41324  eV     1   --> A              
     e( 37 - 37) =      9.61768  eV     1   --> A              
     e( 38 - 38) =      9.67026  eV     1   --> A              
     e( 39 - 39) =      9.83970  eV     1   --> A              
     e( 40 - 40) =      9.94580  eV     1   --> A              
     e( 41 - 41) =     10.07536  eV     1   --> A              
     e( 42 - 42) =     10.16875  eV     1   --> A              
     e( 43 - 43) =     10.41827  eV     1   --> A              
     e( 44 - 44) =     10.62820  eV     1   --> A              
     e( 45 - 45) =     11.49264  eV     1   --> A              
     e( 46 - 46) =     11.56407  eV     1   --> A              
     e( 47 - 47) =     11.65866  eV     1   --> A              
     e( 48 - 48) =     11.69269  eV     1   --> A              
     e( 49 - 49) =     11.75252  eV     1   --> A              
     e( 50 - 50) =     11.82203  eV     1   --> A              
     e( 51 - 51) =     11.90783  eV     1   --> A              
     e( 52 - 52) =     11.95443  eV     1   --> A              
     e( 53 - 53) =     12.16024  eV     1   --> A              
     e( 54 - 54) =     12.25613  eV     1   --> A              
     e( 55 - 55) =     12.32641  eV     1   --> A              
     e( 56 - 56) =     12.34710  eV     1   --> A              
     e( 57 - 57) =     13.92029  eV     1   --> A              
     e( 58 - 58) =     14.11885  eV     1   --> A              
     e( 59 - 59) =     14.20836  eV     1   --> A              
     e( 60 - 60) =     14.26997  eV     1   --> A              
     e( 61 - 61) =     14.69001  eV     1   --> A              
     e( 62 - 62) =     14.72868  eV     1   --> A              
     e( 63 - 63) =     14.99625  eV     1   --> A              
     e( 64 - 64) =     15.01588  eV     1   --> A              
     e( 65 - 65) =     15.55159  eV     1   --> A              
     e( 66 - 66) =     15.63181  eV     1   --> A              
     e( 67 - 67) =     15.85466  eV     1   --> A              
     e( 68 - 68) =     15.89689  eV     1   --> A              
     e( 69 - 69) =     18.97191  eV     1   --> A              
     e( 70 - 70) =     19.11799  eV     1   --> A              
     e( 71 - 71) =     19.26211  eV     1   --> A              
     e( 72 - 72) =     19.89715  eV     1   --> A              
     e( 73 - 73) =     20.03430  eV     1   --> A              
     e( 74 - 74) =     20.27457  eV     1   --> A              
     e( 75 - 75) =     20.51424  eV     1   --> A              
     e( 76 - 76) =     20.74670  eV     1   --> A              
     e( 77 - 77) =     20.87952  eV     1   --> A              
     e( 78 - 78) =     21.14185  eV     1   --> A              
     e( 79 - 79) =     21.36645  eV     1   --> A              
     e( 80 - 80) =     21.62924  eV     1   --> A              
     e( 81 - 81) =     21.68185  eV     1   --> A              
     e( 82 - 82) =     21.71177  eV     1   --> A              
     e( 83 - 83) =     22.13986  eV     1   --> A              
     e( 84 - 84) =     22.38368  eV     1   --> A              

 **************************************************************************

 **************************************************************************

                    xk=(   0.35000,   0.32500,   0.52500  )

     Band symmetry, C_1 (1)     point group:

     e(  1 -  4) =    -73.01166  eV     4   -->   4 A              
     e(  5 -  6) =    -39.58856  eV     2   -->   2 A              
     e(  7 -  8) =    -39.58823  eV     2   -->   2 A              
     e(  9 - 10) =    -39.58619  eV     2   -->   2 A              
     e( 11 - 12) =    -39.58595  eV     2   -->   2 A              
     e( 13 - 16) =    -39.33289  eV     4   -->   4 A              
     e( 17 - 17) =     -2.87804  eV     1   --> A              
     e( 18 - 18) =     -2.76886  eV     1   --> A              
     e( 19 - 19) =     -2.45113  eV     1   --> A              
     e( 20 - 20) =     -2.44133  eV     1   --> A              
     e( 21 - 21) =      0.14885  eV     1   --> A              
     e( 22 - 22) =      0.16114  eV     1   --> A              
     e( 23 - 23) =      0.34728  eV     1   --> A              
     e( 24 - 24) =      0.38425  eV     1   --> A              
     e( 25 - 25) =      5.53206  eV     1   --> A              
     e( 26 - 26) =      5.61885  eV     1   --> A              
     e( 27 - 27) =      6.12120  eV     1   --> A              
     e( 28 - 28) =      6.16905  eV     1   --> A              
     e( 29 - 29) =      6.71709  eV     1   --> A              
     e( 30 - 30) =      6.78513  eV     1   --> A              
     e( 31 - 31) =      7.63689  eV     1   --> A              
     e( 32 - 32) =      7.81544  eV     1   --> A              
     e( 33 - 33) =      8.03228  eV     1   --> A              
     e( 34 - 34) =      8.11199  eV     1   --> A              
     e( 35 - 35) =      8.42439  eV     1   --> A              
     e( 36 - 36) =      8.43154  eV     1   --> A              
     e( 37 - 37) =      9.61463  eV     1   --> A              
     e( 38 - 38) =      9.63286  eV     1   --> A              
     e( 39 - 39) =      9.95450  eV     1   --> A              
     e( 40 - 40) =      9.99052  eV     1   --> A              
     e( 41 - 41) =     10.05104  eV     1   --> A              
     e( 42 - 42) =     10.09361  eV     1   --> A              
     e( 43 - 43) =     10.48266  eV     1   --> A              
     e( 44 - 44) =     10.57697  eV     1   --> A              
     e( 45 - 45) =     11.51757  eV     1   --> A              
     e( 46 - 46) =     11.54715  eV     1   --> A              
     e( 47 - 47) =     11.66450  eV     1   --> A              
     e( 48 - 48) =     11.68706  eV     1   --> A              
     e( 49 - 49) =     11.74980  eV     1   --> A              
     e( 50 - 50) =     11.77181  eV     1   --> A              
     e( 51 - 51) =     11.93339  eV     1   --> A              
     e( 52 - 52) =     11.94148  eV     1   --> A              
     e( 53 - 53) =     12.18638  eV     1   --> A              
     e( 54 - 54) =     12.22809  eV     1   --> A              
     e( 55 - 55) =     12.33543  eV     1   --> A              
     e( 56 - 56) =     12.34429  eV     1   --> A              
     e( 57 - 57) =     13.95673  eV     1   --> A              
     e( 58 - 58) =     14.03713  eV     1   --> A              
     e( 59 - 59) =     14.24396  eV     1   --> A              
     e( 60 - 60) =     14.26193  eV     1   --> A              
     e( 61 - 61) =     14.70588  eV     1   --> A              
     e( 62 - 62) =     14.72589  eV     1   --> A              
     e( 63 - 63) =     15.00113  eV     1   --> A              
     e( 64 - 64) =     15.00739  eV     1   --> A              
     e( 65 - 65) =     15.58633  eV     1   --> A              
     e( 66 - 66) =     15.62242  eV     1   --> A              
     e( 67 - 67) =     15.86158  eV     1   --> A              
     e( 68 - 68) =     15.87732  eV     1   --> A              
     e( 69 - 69) =     18.99368  eV     1   --> A              
     e( 70 - 70) =     19.04791  eV     1   --> A              
     e( 71 - 71) =     19.43064  eV     1   --> A              
     e( 72 - 72) =     19.68984  eV     1   --> A              
     e( 73 - 73) =     20.06388  eV     1   --> A              
     e( 74 - 74) =     20.20512  eV     1   --> A              
     e( 75 - 75) =     20.66161  eV     1   --> A              
     e( 76 - 76) =     20.78032  eV     1   --> A              
     e( 77 - 77) =     20.87377  eV     1   --> A              
     e( 78 - 78) =     21.02951  eV     1   --> A              
     e( 79 - 79) =     21.49053  eV     1   --> A              
     e( 80 - 80) =     21.52072  eV     1   --> A              
     e( 81 - 81) =     21.71349  eV     1   --> A              
     e( 82 - 82) =     21.72053  eV     1   --> A              
     e( 83 - 83) =     22.24127  eV     1   --> A              
     e( 84 - 84) =     22.30666  eV     1   --> A              

 **************************************************************************

 **************************************************************************

                    xk=(   0.32500,   0.33750,   0.48750  )

     Band symmetry, C_1 (1)     point group:

     e(  1 -  4) =    -73.01166  eV     4   -->   4 A              
     e(  5 -  6) =    -39.58854  eV     2   -->   2 A              
     e(  7 -  8) =    -39.58820  eV     2   -->   2 A              
     e(  9 - 10) =    -39.58620  eV     2   -->   2 A              
     e( 11 - 12) =    -39.58593  eV     2   -->   2 A              
     e( 13 - 16) =    -39.33287  eV     4   -->   4 A              
     e( 17 - 17) =     -2.86931  eV     1   --> A              
     e( 18 - 18) =     -2.81338  eV     1   --> A              
     e( 19 - 19) =     -2.43784  eV     1   --> A              
     e( 20 - 20) =     -2.43516  eV     1   --> A              
     e( 21 - 21) =      0.15936  eV     1   --> A              
     e( 22 - 22) =      0.16599  eV     1   --> A              
     e( 23 - 23) =      0.37260  eV     1   --> A              
     e( 24 - 24) =      0.39115  eV     1   --> A              
     e( 25 - 25) =      5.53410  eV     1   --> A              
     e( 26 - 26) =      5.57698  eV     1   --> A              
     e( 27 - 27) =      6.15147  eV     1   --> A              
     e( 28 - 28) =      6.17189  eV     1   --> A              
     e( 29 - 29) =      6.69474  eV     1   --> A              
     e( 30 - 30) =      6.71859  eV     1   --> A              
     e( 31 - 31) =      7.71070  eV     1   --> A              
     e( 32 - 32) =      7.79460  eV     1   --> A              
     e( 33 - 33) =      8.05162  eV     1   --> A              
     e( 34 - 34) =      8.09570  eV     1   --> A              
     e( 35 - 35) =      8.44086  eV     1   --> A              
     e( 36 - 36) =      8.44579  eV     1   --> A              
     e( 37 - 37) =      9.58034  eV     1   --> A              
     e( 38 - 38) =      9.59281  eV     1   --> A              
     e( 39 - 39) =      9.97255  eV     1   --> A              
     e( 40 - 40) =     10.00127  eV     1   --> A              
     e( 41 - 41) =     10.01212  eV     1   --> A              
     e( 42 - 42) =     10.06513  eV     1   --> A              
     e( 43 - 43) =     10.50226  eV     1   --> A              
     e( 44 - 44) =     10.55352  eV     1   --> A              
     e( 45 - 45) =     11.53242  eV     1   --> A              
     e( 46 - 46) =     11.54774  eV     1   --> A              
     e( 47 - 47) =     11.67872  eV     1   --> A              
     e( 48 - 48) =     11.69105  eV     1   --> A              
     e( 49 - 49) =     11.74793  eV     1   --> A              
     e( 50 - 50) =     11.76043  eV     1   --> A              
     e( 51 - 51) =     11.95501  eV     1   --> A              
     e( 52 - 52) =     11.95983  eV     1   --> A              
     e( 53 - 53) =     12.20506  eV     1   --> A              
     e( 54 - 54) =     12.22685  eV     1   --> A              
     e( 55 - 55) =     12.34355  eV     1   --> A              
     e( 56 - 56) =     12.34948  eV     1   --> A              
     e( 57 - 57) =     13.97299  eV     1   --> A              
     e( 58 - 58) =     14.01297  eV     1   --> A              
     e( 59 - 59) =     14.27649  eV     1   --> A              
     e( 60 - 60) =     14.28260  eV     1   --> A              
     e( 61 - 61) =     14.69154  eV     1   --> A              
     e( 62 - 62) =     14.70400  eV     1   --> A              
     e( 63 - 63) =     15.00899  eV     1   --> A              
     e( 64 - 64) =     15.01581  eV     1   --> A              
     e( 65 - 65) =     15.58623  eV     1   --> A              
     e( 66 - 66) =     15.60431  eV     1   --> A              
     e( 67 - 67) =     15.86587  eV     1   --> A              
     e( 68 - 68) =     15.87419  eV     1   --> A              
     e( 69 - 69) =     18.98457  eV     1   --> A              
     e( 70 - 70) =     19.00862  eV     1   --> A              
     e( 71 - 71) =     19.48988  eV     1   --> A              
     e( 72 - 72) =     19.61511  eV     1   --> A              
     e( 73 - 73) =     20.10051  eV     1   --> A              
     e( 74 - 74) =     20.18397  eV     1   --> A              
     e( 75 - 75) =     20.74247  eV     1   --> A              
     e( 76 - 76) =     20.77999  eV     1   --> A              
     e( 77 - 77) =     20.86042  eV     1   --> A              
     e( 78 - 78) =     20.91054  eV     1   --> A              
     e( 79 - 79) =     21.41202  eV     1   --> A              
     e( 80 - 80) =     21.44139  eV     1   --> A              
     e( 81 - 81) =     21.83533  eV     1   --> A              
     e( 82 - 82) =     21.84256  eV     1   --> A              
     e( 83 - 83) =     22.28495  eV     1   --> A              
     e( 84 - 84) =     22.29808  eV     1   --> A              

 **************************************************************************

 **************************************************************************

                    xk=(   0.30000,   0.35000,   0.45000  )

     Band symmetry, C_1 (1)     point group:

     e(  1 -  4) =    -73.01167  eV     4   -->   4 A              
     e(  5 -  5) =    -39.58854  eV     1   --> A              
     e(  6 -  6) =    -39.58837  eV     1   --> A              
     e(  7 -  8) =    -39.58817  eV     2   -->   2 A              
     e(  9 - 10) =    -39.58625  eV     2   -->   2 A              
     e( 11 - 12) =    -39.58597  eV     2   -->   2 A              
     e( 13 - 16) =    -39.33287  eV     4   -->   4 A              
     e( 17 - 17) =     -2.96927  eV     1   --> A              
     e( 18 - 18) =     -2.74219  eV     1   --> A              
     e( 19 - 19) =     -2.45939  eV     1   --> A              
     e( 20 - 20) =     -2.42136  eV     1   --> A              
     e( 21 - 21) =      0.17100  eV     1   --> A              
     e( 22 - 22) =      0.20010  eV     1   --> A              
     e( 23 - 23) =      0.37765  eV     1   --> A              
     e( 24 - 24) =      0.44570  eV     1   --> A              
     e( 25 - 25) =      5.45481  eV     1   --> A              
     e( 26 - 26) =      5.62031  eV     1   --> A              
     e( 27 - 27) =      6.05227  eV     1   --> A              
     e( 28 - 28) =      6.18561  eV     1   --> A              
     e( 29 - 29) =      6.64841  eV     1   --> A              
     e( 30 - 30) =      6.80244  eV     1   --> A              
     e( 31 - 31) =      7.56722  eV     1   --> A              
     e( 32 - 32) =      7.84732  eV     1   --> A              
     e( 33 - 33) =      8.05669  eV     1   --> A              
     e( 34 - 34) =      8.22959  eV     1   --> A              
     e( 35 - 35) =      8.43630  eV     1   --> A              
     e( 36 - 36) =      8.46068  eV     1   --> A              
     e( 37 - 37) =      9.50991  eV     1   --> A              
     e( 38 - 38) =      9.57328  eV     1   --> A              
     e( 39 - 39) =      9.84686  eV     1   --> A              
     e( 40 - 40) =      9.91499  eV     1   --> A              
     e( 41 - 41) =     10.00765  eV     1   --> A              
     e( 42 - 42) =     10.14490  eV     1   --> A              
     e( 43 - 43) =     10.41142  eV     1   --> A              
     e( 44 - 44) =     10.62316  eV     1   --> A              
     e( 45 - 45) =     11.51706  eV     1   --> A              
     e( 46 - 46) =     11.57994  eV     1   --> A              
     e( 47 - 47) =     11.68436  eV     1   --> A              
     e( 48 - 48) =     11.71654  eV     1   --> A              
     e( 49 - 49) =     11.74665  eV     1   --> A              
     e( 50 - 50) =     11.80908  eV     1   --> A              
     e( 51 - 51) =     11.96412  eV     1   --> A              
     e( 52 - 52) =     12.00398  eV     1   --> A              
     e( 53 - 53) =     12.18678  eV     1   --> A              
     e( 54 - 54) =     12.27444  eV     1   --> A              
     e( 55 - 55) =     12.33998  eV     1   --> A              
     e( 56 - 56) =     12.37066  eV     1   --> A              
     e( 57 - 57) =     13.92936  eV     1   --> A              
     e( 58 - 58) =     14.08621  eV     1   --> A              
     e( 59 - 59) =     14.30573  eV     1   --> A              
     e( 60 - 60) =     14.32750  eV     1   --> A              
     e( 61 - 61) =     14.63385  eV     1   --> A              
     e( 62 - 62) =     14.68689  eV     1   --> A              
     e( 63 - 63) =     15.00415  eV     1   --> A              
     e( 64 - 64) =     15.04435  eV     1   --> A              
     e( 65 - 65) =     15.53111  eV     1   --> A              
     e( 66 - 66) =     15.59857  eV     1   --> A              
     e( 67 - 67) =     15.85653  eV     1   --> A              
     e( 68 - 68) =     15.90019  eV     1   --> A              
     e( 69 - 69) =     18.93857  eV     1   --> A              
     e( 70 - 70) =     19.02039  eV     1   --> A              
     e( 71 - 71) =     19.33448  eV     1   --> A              
     e( 72 - 72) =     19.80266  eV     1   --> A              
     e( 73 - 73) =     20.00786  eV     1   --> A              
     e( 74 - 74) =     20.36789  eV     1   --> A              
     e( 75 - 75) =     20.55238  eV     1   --> A              
     e( 76 - 76) =     20.66147  eV     1   --> A              
     e( 77 - 77) =     20.91145  eV     1   --> A              
     e( 78 - 78) =     20.99911  eV     1   --> A              
     e( 79 - 79) =     21.23354  eV     1   --> A              
     e( 80 - 80) =     21.49898  eV     1   --> A              
     e( 81 - 81) =     21.91492  eV     1   --> A              
     e( 82 - 82) =     21.94723  eV     1   --> A              
     e( 83 - 83) =     22.26412  eV     1   --> A              
     e( 84 - 84) =     22.38180  eV     1   --> A              

 **************************************************************************

 **************************************************************************

                    xk=(   0.27500,   0.36250,   0.41250  )

     Band symmetry, C_1 (1)     point group:

     e(  1 -  4) =    -73.01166  eV     4   -->   4 A              
     e(  5 -  5) =    -39.58855  eV     1   --> A              
     e(  6 -  6) =    -39.58829  eV     1   --> A              
     e(  7 -  7) =    -39.58817  eV     1   --> A              
     e(  8 -  8) =    -39.58796  eV     1   --> A              
     e(  9 - 10) =    -39.58632  eV     2   -->   2 A              
     e( 11 - 12) =    -39.58595  eV     2   -->   2 A              
     e( 13 - 16) =    -39.33289  eV     4   -->   4 A              
     e( 17 - 17) =     -3.06584  eV     1   --> A              
     e( 18 - 18) =     -2.66605  eV     1   --> A              
     e( 19 - 19) =     -2.51142  eV     1   --> A              
     e( 20 - 20) =     -2.40038  eV     1   --> A              
     e( 21 - 21) =      0.19234  eV     1   --> A              
     e( 22 - 22) =      0.24051  eV     1   --> A              
     e( 23 - 23) =      0.40979  eV     1   --> A              
     e( 24 - 24) =      0.50519  eV     1   --> A              
     e( 25 - 25) =      5.38362  eV     1   --> A              
     e( 26 - 26) =      5.64747  eV     1   --> A              
     e( 27 - 27) =      5.92197  eV     1   --> A              
     e( 28 - 28) =      6.20081  eV     1   --> A              
     e( 29 - 29) =      6.59184  eV     1   --> A              
     e( 30 - 30) =      6.95301  eV     1   --> A              
     e( 31 - 31) =      7.41495  eV     1   --> A              
     e( 32 - 32) =      7.82805  eV     1   --> A              
     e( 33 - 33) =      8.09684  eV     1   --> A              
     e( 34 - 34) =      8.35300  eV     1   --> A              
     e( 35 - 35) =      8.43289  eV     1   --> A              
     e( 36 - 36) =      8.48958  eV     1   --> A              
     e( 37 - 37) =      9.43167  eV     1   --> A              
     e( 38 - 38) =      9.55800  eV     1   --> A              
     e( 39 - 39) =      9.68990  eV     1   --> A              
     e( 40 - 40) =      9.83448  eV     1   --> A              
     e( 41 - 41) =      9.98048  eV     1   --> A              
     e( 42 - 42) =     10.18885  eV     1   --> A              
     e( 43 - 43) =     10.32305  eV     1   --> A              
     e( 44 - 44) =     10.68360  eV     1   --> A              
     e( 45 - 45) =     11.51144  eV     1   --> A              
     e( 46 - 46) =     11.61230  eV     1   --> A              
     e( 47 - 47) =     11.70803  eV     1   --> A              
     e( 48 - 48) =     11.73846  eV     1   --> A              
     e( 49 - 49) =     11.76473  eV     1   --> A              
     e( 50 - 50) =     11.87548  eV     1   --> A              
     e( 51 - 51) =     11.96419  eV     1   --> A              
     e( 52 - 52) =     12.06074  eV     1   --> A              
     e( 53 - 53) =     12.17384  eV     1   --> A              
     e( 54 - 54) =     12.32164  eV     1   --> A              
     e( 55 - 55) =     12.33344  eV     1   --> A              
     e( 56 - 56) =     12.39680  eV     1   --> A              
     e( 57 - 57) =     13.90594  eV     1   --> A              
     e( 58 - 58) =     14.17244  eV     1   --> A              
     e( 59 - 59) =     14.32868  eV     1   --> A              
     e( 60 - 60) =     14.38691  eV     1   --> A              
     e( 61 - 61) =     14.57012  eV     1   --> A              
     e( 62 - 62) =     14.65316  eV     1   --> A              
     e( 63 - 63) =     14.99120  eV     1   --> A              
     e( 64 - 64) =     15.07712  eV     1   --> A              
     e( 65 - 65) =     15.47247  eV     1   --> A              
     e( 66 - 66) =     15.58280  eV     1   --> A              
     e( 67 - 67) =     15.83962  eV     1   --> A              
     e( 68 - 68) =     15.93423  eV     1   --> A              
     e( 69 - 69) =     18.91755  eV     1   --> A              
     e( 70 - 70) =     19.03607  eV     1   --> A              
     e( 71 - 71) =     19.23740  eV     1   --> A              
     e( 72 - 72) =     19.92131  eV     1   --> A              
     e( 73 - 73) =     19.98606  eV     1   --> A              
     e( 74 - 74) =     20.33062  eV     1   --> A              
     e( 75 - 75) =     20.49715  eV     1   --> A              
     e( 76 - 76) =     20.60467  eV     1   --> A              
     e( 77 - 77) =     20.93888  eV     1   --> A              
     e( 78 - 78) =     21.01750  eV     1   --> A              
     e( 79 - 79) =     21.16166  eV     1   --> A              
     e( 80 - 80) =     21.64652  eV     1   --> A              
     e( 81 - 81) =     21.91221  eV     1   --> A              
     e( 82 - 82) =     21.92842  eV     1   --> A              
     e( 83 - 83) =     22.28980  eV     1   --> A              
     e( 84 - 84) =     22.55802  eV     1   --> A              

 **************************************************************************

 **************************************************************************

                    xk=(   0.25000,   0.37500,   0.37500  )

     Band symmetry, C_1 (1)     point group:

     e(  1 -  4) =    -73.01167  eV     4   -->   4 A              
     e(  5 -  5) =    -39.58852  eV     1   --> A              
     e(  6 -  7) =    -39.58821  eV     2   -->   2 A              
     e(  8 -  8) =    -39.58784  eV     1   --> A              
     e(  9 - 10) =    -39.58643  eV     2   -->   2 A              
     e( 11 - 12) =    -39.58598  eV     2   -->   2 A              
     e( 13 - 16) =    -39.33289  eV     4   -->   4 A              
     e( 17 - 17) =     -3.15652  eV     1   --> A              
     e( 18 - 18) =     -2.59147  eV     1   --> A              
     e( 19 - 19) =     -2.58231  eV     1   --> A              
     e( 20 - 20) =     -2.37286  eV     1   --> A              
     e( 21 - 21) =      0.22092  eV     1   --> A              
     e( 22 - 22) =      0.27474  eV     1   --> A              
     e( 23 - 23) =      0.47475  eV     1   --> A              
     e( 24 - 24) =      0.56518  eV     1   --> A              
     e( 25 - 25) =      5.32289  eV     1   --> A              
     e( 26 - 26) =      5.60878  eV     1   --> A              
     e( 27 - 27) =      5.86132  eV     1   --> A              
     e( 28 - 28) =      6.21787  eV     1   --> A              
     e( 29 - 29) =      6.52874  eV     1   --> A              
     e( 30 - 30) =      7.09682  eV     1   --> A              
     e( 31 - 31) =      7.29029  eV     1   --> A              
     e( 32 - 32) =      7.78428  eV     1   --> A              
     e( 33 - 33) =      8.11338  eV     1   --> A              
     e( 34 - 34) =      8.38850  eV     1   --> A              
     e( 35 - 35) =      8.42776  eV     1   --> A              
     e( 36 - 36) =      8.59767  eV     1   --> A              
     e( 37 - 37) =      9.35592  eV     1   --> A              
     e( 38 - 38) =      9.50954  eV     1   --> A              
     e( 39 - 39) =      9.56612  eV     1   --> A              
     e( 40 - 40) =      9.74756  eV     1   --> A              
     e( 41 - 41) =      9.94757  eV     1   --> A              
     e( 42 - 42) =     10.16083  eV     1   --> A              
     e( 43 - 43) =     10.28054  eV     1   --> A              
     e( 44 - 44) =     10.72969  eV     1   --> A              
     e( 45 - 45) =     11.52451  eV     1   --> A              
     e( 46 - 46) =     11.64273  eV     1   --> A              
     e( 47 - 47) =     11.72781  eV     1   --> A              
     e( 48 - 48) =     11.77272  eV     1   --> A              
     e( 49 - 49) =     11.79968  eV     1   --> A              
     e( 50 - 50) =     11.91442  eV     1   --> A              
     e( 51 - 51) =     11.98424  eV     1   --> A              
     e( 52 - 52) =     12.10385  eV     1   --> A              
     e( 53 - 53) =     12.17830  eV     1   --> A              
     e( 54 - 54) =     12.32244  eV     1   --> A              
     e( 55 - 55) =     12.36466  eV     1   --> A              
     e( 56 - 56) =     12.42419  eV     1   --> A              
     e( 57 - 57) =     13.89851  eV     1   --> A              
     e( 58 - 58) =     14.26149  eV     1   --> A              
     e( 59 - 59) =     14.33132  eV     1   --> A              
     e( 60 - 60) =     14.43860  eV     1   --> A              
     e( 61 - 61) =     14.54037  eV     1   --> A              
     e( 62 - 62) =     14.60742  eV     1   --> A              
     e( 63 - 63) =     14.97220  eV     1   --> A              
     e( 64 - 64) =     15.10874  eV     1   --> A              
     e( 65 - 65) =     15.42397  eV     1   --> A              
     e( 66 - 66) =     15.57578  eV     1   --> A              
     e( 67 - 67) =     15.81394  eV     1   --> A              
     e( 68 - 68) =     15.96327  eV     1   --> A              
     e( 69 - 69) =     18.92154  eV     1   --> A              
     e( 70 - 70) =     19.06353  eV     1   --> A              
     e( 71 - 71) =     19.20033  eV     1   --> A              
     e( 72 - 72) =     19.82976  eV     1   --> A              
     e( 73 - 73) =     20.11488  eV     1   --> A              
     e( 74 - 74) =     20.16281  eV     1   --> A              
     e( 75 - 75) =     20.40267  eV     1   --> A              
     e( 76 - 76) =     20.65711  eV     1   --> A              
     e( 77 - 77) =     20.89679  eV     1   --> A              
     e( 78 - 78) =     21.07307  eV     1   --> A              
     e( 79 - 79) =     21.31138  eV     1   --> A              
     e( 80 - 80) =     21.72862  eV     1   --> A              
     e( 81 - 81) =     21.84775  eV     1   --> A              
     e( 82 - 82) =     21.96887  eV     1   --> A              
     e( 83 - 83) =     22.32884  eV     1   --> A              
     e( 84 - 84) =     22.75490  eV     1   --> A              

 **************************************************************************

 **************************************************************************

                    xk=(   0.22500,   0.38750,   0.33750  )

     Band symmetry, C_1 (1)     point group:

     e(  1 -  4) =    -73.01170  eV     4   -->   4 A              
     e(  5 -  5) =    -39.58851  eV     1   --> A              
     e(  6 -  6) =    -39.58821  eV     1   --> A              
     e(  7 -  7) =    -39.58805  eV     1   --> A              
     e(  8 -  8) =    -39.58778  eV     1   --> A              
     e(  9 - 10) =    -39.58654  eV     2   -->   2 A              
     e( 11 - 12) =    -39.58603  eV     2   -->   2 A              
     e( 13 - 13) =    -39.33291  eV     1   --> A              
     e( 14 - 16) =    -39.33280  eV     3   -->   3 A              
     e( 17 - 17) =     -3.23923  eV     1   --> A              
     e( 18 - 18) =     -2.67940  eV     1   --> A              
     e( 19 - 19) =     -2.50555  eV     1   --> A              
     e( 20 - 20) =     -2.33971  eV     1   --> A              
     e( 21 - 21) =      0.25461  eV     1   --> A              
     e( 22 - 22) =      0.30504  eV     1   --> A              
     e( 23 - 23) =      0.55999  eV     1   --> A              
     e( 24 - 24) =      0.62293  eV     1   --> A              
     e( 25 - 25) =      5.27501  eV     1   --> A              
     e( 26 - 26) =      5.50342  eV     1   --> A              
     e( 27 - 27) =      5.89078  eV     1   --> A              
     e( 28 - 28) =      6.23170  eV     1   --> A              
     e( 29 - 29) =      6.46701  eV     1   --> A              
     e( 30 - 30) =      7.06130  eV     1   --> A              
     e( 31 - 31) =      7.34502  eV     1   --> A              
     e( 32 - 32) =      7.73194  eV     1   --> A              
     e( 33 - 33) =      8.07934  eV     1   --> A              
     e( 34 - 34) =      8.40574  eV     1   --> A              
     e( 35 - 35) =      8.42835  eV     1   --> A              
     e( 36 - 36) =      8.71111  eV     1   --> A              
     e( 37 - 37) =      9.28409  eV     1   --> A              
     e( 38 - 38) =      9.36653  eV     1   --> A              
     e( 39 - 39) =      9.55920  eV     1   --> A              
     e( 40 - 40) =      9.66034  eV     1   --> A              
     e( 41 - 41) =      9.90814  eV     1   --> A              
     e( 42 - 42) =     10.08872  eV     1   --> A              
     e( 43 - 43) =     10.27284  eV     1   --> A              
     e( 44 - 44) =     10.75504  eV     1   --> A              
     e( 45 - 45) =     11.55744  eV     1   --> A              
     e( 46 - 46) =     11.67156  eV     1   --> A              
     e( 47 - 47) =     11.73979  eV     1   --> A              
     e( 48 - 48) =     11.81056  eV     1   --> A              
     e( 49 - 49) =     11.84873  eV     1   --> A              
     e( 50 - 50) =     11.90231  eV     1   --> A              
     e( 51 - 51) =     12.04254  eV     1   --> A              
     e( 52 - 52) =     12.10257  eV     1   --> A              
     e( 53 - 53) =     12.21717  eV     1   --> A              
     e( 54 - 54) =     12.31427  eV     1   --> A              
     e( 55 - 55) =     12.39484  eV     1   --> A              
     e( 56 - 56) =     12.44815  eV     1   --> A              
     e( 57 - 57) =     13.89762  eV     1   --> A              
     e( 58 - 58) =     14.28459  eV     1   --> A              
     e( 59 - 59) =     14.35492  eV     1   --> A              
     e( 60 - 60) =     14.43360  eV     1   --> A              
     e( 61 - 61) =     14.56192  eV     1   --> A              
     e( 62 - 62) =     14.62076  eV     1   --> A              
     e( 63 - 63) =     14.94848  eV     1   --> A              
     e( 64 - 64) =     15.13767  eV     1   --> A              
     e( 65 - 65) =     15.39521  eV     1   --> A              
     e( 66 - 66) =     15.58307  eV     1   --> A              
     e( 67 - 67) =     15.78540  eV     1   --> A              
     e( 68 - 68) =     15.97854  eV     1   --> A              
     e( 69 - 69) =     18.94225  eV     1   --> A              
     e( 70 - 70) =     19.10953  eV     1   --> A              
     e( 71 - 71) =     19.21393  eV     1   --> A              
     e( 72 - 72) =     19.72159  eV     1   --> A              
     e( 73 - 73) =     19.93703  eV     1   --> A              
     e( 74 - 74) =     20.26171  eV     1   --> A              
     e( 75 - 75) =     20.37294  eV     1   --> A              
     e( 76 - 76) =     20.51517  eV     1   --> A              
     e( 77 - 77) =     20.95266  eV     1   --> A              
     e( 78 - 78) =     21.28289  eV     1   --> A              
     e( 79 - 79) =     21.46428  eV     1   --> A              
     e( 80 - 80) =     21.69483  eV     1   --> A              
     e( 81 - 81) =     21.78575  eV     1   --> A              
     e( 82 - 82) =     22.15889  eV     1   --> A              
     e( 83 - 83) =     22.36016  eV     1   --> A              
     e( 84 - 84) =     22.89489  eV     1   --> A              

 **************************************************************************

 **************************************************************************

                    xk=(   0.20000,   0.40000,   0.30000  )

     Band symmetry, C_1 (1)     point group:

     e(  1 -  4) =    -73.01171  eV     4   -->   4 A              
     e(  5 -  5) =    -39.58847  eV     1   --> A              
     e(  6 -  6) =    -39.58821  eV     1   --> A              
     e(  7 -  7) =    -39.58795  eV     1   --> A              
     e(  8 -  8) =    -39.58768  eV     1   --> A              
     e(  9 -  9) =    -39.58671  eV     1   --> A              
     e( 10 - 10) =    -39.58657  eV     1   --> A              
     e( 11 - 11) =    -39.58607  eV     1   --> A              
     e( 12 - 12) =    -39.58595  eV     1   --> A              
     e( 13 - 13) =    -39.33299  eV     1   --> A              
     e( 14 - 16) =    -39.33283  eV     3   -->   3 A              
     e( 17 - 17) =     -3.31227  eV     1   --> A              
     e( 18 - 18) =     -2.78054  eV     1   --> A              
     e( 19 - 19) =     -2.42560  eV     1   --> A              
     e( 20 - 20) =     -2.30207  eV     1   --> A              
     e( 21 - 21) =      0.29141  eV     1   --> A              
     e( 22 - 22) =      0.33829  eV     1   --> A              
     e( 23 - 23) =      0.64230  eV     1   --> A              
     e( 24 - 24) =      0.68204  eV     1   --> A              
     e( 25 - 25) =      5.24213  eV     1   --> A              
     e( 26 - 26) =      5.39740  eV     1   --> A              
     e( 27 - 27) =      5.95120  eV     1   --> A              
     e( 28 - 28) =      6.23213  eV     1   --> A              
     e( 29 - 29) =      6.41685  eV     1   --> A              
     e( 30 - 30) =      6.93757  eV     1   --> A              
     e( 31 - 31) =      7.44682  eV     1   --> A              
     e( 32 - 32) =      7.70179  eV     1   --> A              
     e( 33 - 33) =      8.02346  eV     1   --> A              
     e( 34 - 34) =      8.37844  eV     1   --> A              
     e( 35 - 35) =      8.47441  eV     1   --> A              
     e( 36 - 36) =      8.79154  eV     1   --> A              
     e( 37 - 37) =      9.18488  eV     1   --> A              
     e( 38 - 38) =      9.27687  eV     1   --> A              
     e( 39 - 39) =      9.53627  eV     1   --> A              
     e( 40 - 40) =      9.61681  eV     1   --> A              
     e( 41 - 41) =      9.84501  eV     1   --> A              
     e( 42 - 42) =     10.03598  eV     1   --> A              
     e( 43 - 43) =     10.25954  eV     1   --> A              
     e( 44 - 44) =     10.75149  eV     1   --> A              
     e( 45 - 45) =     11.60657  eV     1   --> A              
     e( 46 - 46) =     11.69019  eV     1   --> A              
     e( 47 - 47) =     11.75949  eV     1   --> A              
     e( 48 - 48) =     11.83515  eV     1   --> A              
     e( 49 - 49) =     11.88685  eV     1   --> A              
     e( 50 - 50) =     11.90387  eV     1   --> A              
     e( 51 - 51) =     12.07464  eV     1   --> A              
     e( 52 - 52) =     12.09876  eV     1   --> A              
     e( 53 - 53) =     12.25470  eV     1   --> A              
     e( 54 - 54) =     12.32073  eV     1   --> A              
     e( 55 - 55) =     12.41006  eV     1   --> A              
     e( 56 - 56) =     12.46444  eV     1   --> A              
     e( 57 - 57) =     13.89078  eV     1   --> A              
     e( 58 - 58) =     14.25595  eV     1   --> A              
     e( 59 - 59) =     14.32898  eV     1   --> A              
     e( 60 - 60) =     14.49130  eV     1   --> A              
     e( 61 - 61) =     14.54358  eV     1   --> A              
     e( 62 - 62) =     14.74344  eV     1   --> A              
     e( 63 - 63) =     14.92317  eV     1   --> A              
     e( 64 - 64) =     15.16450  eV     1   --> A              
     e( 65 - 65) =     15.38866  eV     1   --> A              
     e( 66 - 66) =     15.59183  eV     1   --> A              
     e( 67 - 67) =     15.76916  eV     1   --> A              
     e( 68 - 68) =     15.97690  eV     1   --> A              
     e( 69 - 69) =     18.96552  eV     1   --> A              
     e( 70 - 70) =     19.17254  eV     1   --> A              
     e( 71 - 71) =     19.26054  eV     1   --> A              
     e( 72 - 72) =     19.61801  eV     1   --> A              
     e( 73 - 73) =     19.75461  eV     1   --> A              
     e( 74 - 74) =     20.20631  eV     1   --> A              
     e( 75 - 75) =     20.43590  eV     1   --> A              
     e( 76 - 76) =     20.49370  eV     1   --> A              
     e( 77 - 77) =     21.00101  eV     1   --> A              
     e( 78 - 78) =     21.47533  eV     1   --> A              
     e( 79 - 79) =     21.59181  eV     1   --> A              
     e( 80 - 80) =     21.65623  eV     1   --> A              
     e( 81 - 81) =     21.83107  eV     1   --> A              
     e( 82 - 82) =     22.30135  eV     1   --> A              
     e( 83 - 83) =     22.49117  eV     1   --> A              
     e( 84 - 84) =     22.90216  eV     1   --> A              

 **************************************************************************

 **************************************************************************

                    xk=(   0.17500,   0.41250,   0.26250  )

     Band symmetry, C_1 (1)     point group:

     e(  1 -  4) =    -73.01173  eV     4   -->   4 A              
     e(  5 -  5) =    -39.58849  eV     1   --> A              
     e(  6 -  6) =    -39.58825  eV     1   --> A              
     e(  7 -  7) =    -39.58787  eV     1   --> A              
     e(  8 -  8) =    -39.58753  eV     1   --> A              
     e(  9 -  9) =    -39.58687  eV     1   --> A              
     e( 10 - 10) =    -39.58671  eV     1   --> A              
     e( 11 - 12) =    -39.58613  eV     2   -->   2 A              
     e( 13 - 13) =    -39.33301  eV     1   --> A              
     e( 14 - 16) =    -39.33289  eV     3   -->   3 A              
     e( 17 - 17) =     -3.37426  eV     1   --> A              
     e( 18 - 18) =     -2.88519  eV     1   --> A              
     e( 19 - 19) =     -2.34855  eV     1   --> A              
     e( 20 - 20) =     -2.26138  eV     1   --> A              
     e( 21 - 21) =      0.33036  eV     1   --> A              
     e( 22 - 22) =      0.37660  eV     1   --> A              
     e( 23 - 23) =      0.69606  eV     1   --> A              
     e( 24 - 24) =      0.75403  eV     1   --> A              
     e( 25 - 25) =      5.22570  eV     1   --> A              
     e( 26 - 26) =      5.31542  eV     1   --> A              
     e( 27 - 27) =      6.01429  eV     1   --> A              
     e( 28 - 28) =      6.20879  eV     1   --> A              
     e( 29 - 29) =      6.38804  eV     1   --> A              
     e( 30 - 30) =      6.82267  eV     1   --> A              
     e( 31 - 31) =      7.44583  eV     1   --> A              
     e( 32 - 32) =      7.70995  eV     1   --> A              
     e( 33 - 33) =      8.02077  eV     1   --> A              
     e( 34 - 34) =      8.34551  eV     1   --> A              
     e( 35 - 35) =      8.50180  eV     1   --> A              
     e( 36 - 36) =      8.83873  eV     1   --> A              
     e( 37 - 37) =      9.08131  eV     1   --> A              
     e( 38 - 38) =      9.22613  eV     1   --> A              
     e( 39 - 39) =      9.48042  eV     1   --> A              
     e( 40 - 40) =      9.63812  eV     1   --> A              
     e( 41 - 41) =      9.75701  eV     1   --> A              
     e( 42 - 42) =     10.01461  eV     1   --> A              
     e( 43 - 43) =     10.23257  eV     1   --> A              
     e( 44 - 44) =     10.71207  eV     1   --> A              
     e( 45 - 45) =     11.65197  eV     1   --> A              
     e( 46 - 46) =     11.70650  eV     1   --> A              
     e( 47 - 47) =     11.78514  eV     1   --> A              
     e( 48 - 48) =     11.83217  eV     1   --> A              
     e( 49 - 49) =     11.89800  eV     1   --> A              
     e( 50 - 50) =     11.95873  eV     1   --> A              
     e( 51 - 51) =     12.05493  eV     1   --> A              
     e( 52 - 52) =     12.11314  eV     1   --> A              
     e( 53 - 53) =     12.28319  eV     1   --> A              
     e( 54 - 54) =     12.34908  eV     1   --> A              
     e( 55 - 55) =     12.41186  eV     1   --> A              
     e( 56 - 56) =     12.47107  eV     1   --> A              
     e( 57 - 57) =     13.87400  eV     1   --> A              
     e( 58 - 58) =     14.21813  eV     1   --> A              
     e( 59 - 59) =     14.30660  eV     1   --> A              
     e( 60 - 60) =     14.50295  eV     1   --> A              
     e( 61 - 61) =     14.59609  eV     1   --> A              
     e( 62 - 62) =     14.86166  eV     1   --> A              
     e( 63 - 63) =     14.92857  eV     1   --> A              
     e( 64 - 64) =     15.19054  eV     1   --> A              
     e( 65 - 65) =     15.39538  eV     1   --> A              
     e( 66 - 66) =     15.58287  eV     1   --> A              
     e( 67 - 67) =     15.78461  eV     1   --> A              
     e( 68 - 68) =     15.96089  eV     1   --> A              
     e( 69 - 69) =     18.97626  eV     1   --> A              
     e( 70 - 70) =     19.23312  eV     1   --> A              
     e( 71 - 71) =     19.30914  eV     1   --> A              
     e( 72 - 72) =     19.49341  eV     1   --> A              
     e( 73 - 73) =     19.65818  eV     1   --> A              
     e( 74 - 74) =     20.08327  eV     1   --> A              
     e( 75 - 75) =     20.52905  eV     1   --> A              
     e( 76 - 76) =     20.58737  eV     1   --> A              
     e( 77 - 77) =     21.03547  eV     1   --> A              
     e( 78 - 78) =     21.49499  eV     1   --> A              
     e( 79 - 79) =     21.65894  eV     1   --> A              
     e( 80 - 80) =     21.76300  eV     1   --> A              
     e( 81 - 81) =     21.99526  eV     1   --> A              
     e( 82 - 82) =     22.37285  eV     1   --> A              
     e( 83 - 83) =     22.72618  eV     1   --> A              
     e( 84 - 84) =     22.81709  eV     1   --> A              

 **************************************************************************

 **************************************************************************

                    xk=(   0.15000,   0.42500,   0.22500  )

     Band symmetry, C_1 (1)     point group:

     e(  1 -  4) =    -73.01173  eV     4   -->   4 A              
     e(  5 -  5) =    -39.58842  eV     1   --> A              
     e(  6 -  6) =    -39.58821  eV     1   --> A              
     e(  7 -  7) =    -39.58778  eV     1   --> A              
     e(  8 -  8) =    -39.58740  eV     1   --> A              
     e(  9 -  9) =    -39.58697  eV     1   --> A              
     e( 10 - 10) =    -39.58679  eV     1   --> A              
     e( 11 - 12) =    -39.58617  eV     2   -->   2 A              
     e( 13 - 14) =    -39.33300  eV     2   -->   2 A              
     e( 15 - 16) =    -39.33279  eV     2   -->   2 A              
     e( 17 - 17) =     -3.42414  eV     1   --> A              
     e( 18 - 18) =     -2.98877  eV     1   --> A              
     e( 19 - 19) =     -2.27667  eV     1   --> A              
     e( 20 - 20) =     -2.21930  eV     1   --> A              
     e( 21 - 21) =      0.37154  eV     1   --> A              
     e( 22 - 22) =      0.41799  eV     1   --> A              
     e( 23 - 23) =      0.73016  eV     1   --> A              
     e( 24 - 24) =      0.82172  eV     1   --> A              
     e( 25 - 25) =      5.22604  eV     1   --> A              
     e( 26 - 26) =      5.26432  eV     1   --> A              
     e( 27 - 27) =      6.04882  eV     1   --> A              
     e( 28 - 28) =      6.17285  eV     1   --> A              
     e( 29 - 29) =      6.37984  eV     1   --> A              
     e( 30 - 30) =      6.73187  eV     1   --> A              
     e( 31 - 31) =      7.39827  eV     1   --> A              
     e( 32 - 32) =      7.66875  eV     1   --> A              
     e( 33 - 33) =      8.12819  eV     1   --> A              
     e( 34 - 34) =      8.30687  eV     1   --> A              
     e( 35 - 35) =      8.48821  eV     1   --> A              
     e( 36 - 36) =      8.85819  eV     1   --> A              
     e( 37 - 37) =      9.02086  eV     1   --> A              
     e( 38 - 38) =      9.17345  eV     1   --> A              
     e( 39 - 39) =      9.43835  eV     1   --> A              
     e( 40 - 40) =      9.64974  eV     1   --> A              
     e( 41 - 41) =      9.68770  eV     1   --> A              
     e( 42 - 42) =     10.01287  eV     1   --> A              
     e( 43 - 43) =     10.18804  eV     1   --> A              
     e( 44 - 44) =     10.63337  eV     1   --> A              
     e( 45 - 45) =     11.65311  eV     1   --> A              
     e( 46 - 46) =     11.74600  eV     1   --> A              
     e( 47 - 47) =     11.78908  eV     1   --> A              
     e( 48 - 48) =     11.84926  eV     1   --> A              
     e( 49 - 49) =     11.91667  eV     1   --> A              
     e( 50 - 50) =     12.01110  eV     1   --> A              
     e( 51 - 51) =     12.04017  eV     1   --> A              
     e( 52 - 52) =     12.10732  eV     1   --> A              
     e( 53 - 53) =     12.31278  eV     1   --> A              
     e( 54 - 54) =     12.38178  eV     1   --> A              
     e( 55 - 55) =     12.41064  eV     1   --> A              
     e( 56 - 56) =     12.46947  eV     1   --> A              
     e( 57 - 57) =     13.85778  eV     1   --> A              
     e( 58 - 58) =     14.17030  eV     1   --> A              
     e( 59 - 59) =     14.32223  eV     1   --> A              
     e( 60 - 60) =     14.47831  eV     1   --> A              
     e( 61 - 61) =     14.66689  eV     1   --> A              
     e( 62 - 62) =     14.87766  eV     1   --> A              
     e( 63 - 63) =     15.05891  eV     1   --> A              
     e( 64 - 64) =     15.21769  eV     1   --> A              
     e( 65 - 65) =     15.40032  eV     1   --> A              
     e( 66 - 66) =     15.56039  eV     1   --> A              
     e( 67 - 67) =     15.82866  eV     1   --> A              
     e( 68 - 68) =     15.94116  eV     1   --> A              
     e( 69 - 69) =     18.96643  eV     1   --> A              
     e( 70 - 70) =     19.25064  eV     1   --> A              
     e( 71 - 71) =     19.27819  eV     1   --> A              
     e( 72 - 72) =     19.38665  eV     1   --> A              
     e( 73 - 73) =     19.69013  eV     1   --> A              
     e( 74 - 74) =     20.03026  eV     1   --> A              
     e( 75 - 75) =     20.63988  eV     1   --> A              
     e( 76 - 76) =     20.68697  eV     1   --> A              
     e( 77 - 77) =     21.07672  eV     1   --> A              
     e( 78 - 78) =     21.42845  eV     1   --> A              
     e( 79 - 79) =     21.75164  eV     1   --> A              
     e( 80 - 80) =     21.90297  eV     1   --> A              
     e( 81 - 81) =     22.18558  eV     1   --> A              
     e( 82 - 82) =     22.44418  eV     1   --> A              
     e( 83 - 83) =     22.68390  eV     1   --> A              
     e( 84 - 84) =     23.01899  eV     1   --> A              

 **************************************************************************

 **************************************************************************

                    xk=(   0.12500,   0.43750,   0.18750  )

     Band symmetry, C_1 (1)     point group:

     e(  1 -  4) =    -73.01174  eV     4   -->   4 A              
     e(  5 -  5) =    -39.58838  eV     1   --> A              
     e(  6 -  6) =    -39.58819  eV     1   --> A              
     e(  7 -  7) =    -39.58769  eV     1   --> A              
     e(  8 -  8) =    -39.58732  eV     1   --> A              
     e(  9 -  9) =    -39.58702  eV     1   --> A              
     e( 10 - 10) =    -39.58684  eV     1   --> A              
     e( 11 - 12) =    -39.58624  eV     2   -->   2 A              
     e( 13 - 14) =    -39.33301  eV     2   -->   2 A              
     e( 15 - 16) =    -39.33277  eV     2   -->   2 A              
     e( 17 - 17) =     -3.46109  eV     1   --> A              
     e( 18 - 18) =     -3.08771  eV     1   --> A              
     e( 19 - 19) =     -2.21212  eV     1   --> A              
     e( 20 - 20) =     -2.17779  eV     1   --> A              
     e( 21 - 21) =      0.41461  eV     1   --> A              
     e( 22 - 22) =      0.45903  eV     1   --> A              
     e( 23 - 23) =      0.75455  eV     1   --> A              
     e( 24 - 24) =      0.87195  eV     1   --> A              
     e( 25 - 25) =      5.24151  eV     1   --> A              
     e( 26 - 26) =      5.24613  eV     1   --> A              
     e( 27 - 27) =      6.01788  eV     1   --> A              
     e( 28 - 28) =      6.13615  eV     1   --> A              
     e( 29 - 29) =      6.39903  eV     1   --> A              
     e( 30 - 30) =      6.67093  eV     1   --> A              
     e( 31 - 31) =      7.36795  eV     1   --> A              
     e( 32 - 32) =      7.60628  eV     1   --> A              
     e( 33 - 33) =      8.25323  eV     1   --> A              
     e( 34 - 34) =      8.29000  eV     1   --> A              
     e( 35 - 35) =      8.42807  eV     1   --> A              
     e( 36 - 36) =      8.84689  eV     1   --> A              
     e( 37 - 37) =      9.02112  eV     1   --> A              
     e( 38 - 38) =      9.11818  eV     1   --> A              
     e( 39 - 39) =      9.41052  eV     1   --> A              
     e( 40 - 40) =      9.56168  eV     1   --> A              
     e( 41 - 41) =      9.72556  eV     1   --> A              
     e( 42 - 42) =     10.01833  eV     1   --> A              
     e( 43 - 43) =     10.12692  eV     1   --> A              
     e( 44 - 44) =     10.51731  eV     1   --> A              
     e( 45 - 45) =     11.63590  eV     1   --> A              
     e( 46 - 46) =     11.72376  eV     1   --> A              
     e( 47 - 47) =     11.82340  eV     1   --> A              
     e( 48 - 48) =     11.88654  eV     1   --> A              
     e( 49 - 49) =     11.93367  eV     1   --> A              
     e( 50 - 50) =     12.04124  eV     1   --> A              
     e( 51 - 51) =     12.06011  eV     1   --> A              
     e( 52 - 52) =     12.10463  eV     1   --> A              
     e( 53 - 53) =     12.33027  eV     1   --> A              
     e( 54 - 54) =     12.40071  eV     1   --> A              
     e( 55 - 55) =     12.42991  eV     1   --> A              
     e( 56 - 56) =     12.46349  eV     1   --> A              
     e( 57 - 57) =     13.85419  eV     1   --> A              
     e( 58 - 58) =     14.13014  eV     1   --> A              
     e( 59 - 59) =     14.34545  eV     1   --> A              
     e( 60 - 60) =     14.44487  eV     1   --> A              
     e( 61 - 61) =     14.71672  eV     1   --> A              
     e( 62 - 62) =     14.89451  eV     1   --> A              
     e( 63 - 63) =     15.19764  eV     1   --> A              
     e( 64 - 64) =     15.24839  eV     1   --> A              
     e( 65 - 65) =     15.39595  eV     1   --> A              
     e( 66 - 66) =     15.53698  eV     1   --> A              
     e( 67 - 67) =     15.87979  eV     1   --> A              
     e( 68 - 68) =     15.94309  eV     1   --> A              
     e( 69 - 69) =     18.93942  eV     1   --> A              
     e( 70 - 70) =     19.12118  eV     1   --> A              
     e( 71 - 71) =     19.25469  eV     1   --> A              
     e( 72 - 72) =     19.31080  eV     1   --> A              
     e( 73 - 73) =     19.80564  eV     1   --> A              
     e( 74 - 74) =     20.07909  eV     1   --> A              
     e( 75 - 75) =     20.74035  eV     1   --> A              
     e( 76 - 76) =     20.79892  eV     1   --> A              
     e( 77 - 77) =     21.12523  eV     1   --> A              
     e( 78 - 78) =     21.37072  eV     1   --> A              
     e( 79 - 79) =     21.85860  eV     1   --> A              
     e( 80 - 80) =     22.04014  eV     1   --> A              
     e( 81 - 81) =     22.33264  eV     1   --> A              
[...]
     e( 20 - 20) =     -2.37170  eV     1   --> A              
     e( 21 - 21) =      0.22155  eV     1   --> A              
     e( 22 - 22) =      0.27123  eV     1   --> A              
     e( 23 - 23) =      0.48275  eV     1   --> A              
     e( 24 - 24) =      0.56770  eV     1   --> A              
     e( 25 - 25) =      5.32058  eV     1   --> A              
     e( 26 - 26) =      5.57809  eV     1   --> A              
     e( 27 - 27) =      5.89276  eV     1   --> A              
     e( 28 - 28) =      6.21662  eV     1   --> A              
     e( 29 - 29) =      6.52804  eV     1   --> A              
     e( 30 - 30) =      7.06735  eV     1   --> A              
     e( 31 - 31) =      7.32941  eV     1   --> A              
     e( 32 - 32) =      7.78785  eV     1   --> A              
     e( 33 - 33) =      8.08709  eV     1   --> A              
     e( 34 - 34) =      8.41102  eV     1   --> A              
     e( 35 - 35) =      8.41994  eV     1   --> A              
     e( 36 - 36) =      8.59096  eV     1   --> A              
     e( 37 - 37) =      9.36896  eV     1   --> A              
     e( 38 - 38) =      9.46501  eV     1   --> A              
     e( 39 - 39) =      9.60007  eV     1   --> A              
     e( 40 - 40) =      9.74141  eV     1   --> A              
     e( 41 - 41) =      9.95848  eV     1   --> A              
     e( 42 - 42) =     10.11824  eV     1   --> A              
     e( 43 - 43) =     10.30333  eV     1   --> A              
     e( 44 - 44) =     10.72203  eV     1   --> A              
     e( 45 - 45) =     11.53226  eV     1   --> A              
     e( 46 - 46) =     11.64487  eV     1   --> A              
     e( 47 - 47) =     11.72431  eV     1   --> A              
     e( 48 - 48) =     11.77862  eV     1   --> A              
     e( 49 - 49) =     11.81817  eV     1   --> A              
     e( 50 - 50) =     11.90267  eV     1   --> A              
     e( 51 - 51) =     11.99999  eV     1   --> A              
     e( 52 - 52) =     12.08408  eV     1   --> A              
     e( 53 - 53) =     12.18602  eV     1   --> A              
     e( 54 - 54) =     12.30817  eV     1   --> A              
     e( 55 - 55) =     12.37738  eV     1   --> A              
     e( 56 - 56) =     12.42472  eV     1   --> A              
     e( 57 - 57) =     13.90375  eV     1   --> A              
     e( 58 - 58) =     14.26899  eV     1   --> A              
     e( 59 - 59) =     14.31351  eV     1   --> A              
     e( 60 - 60) =     14.43881  eV     1   --> A              
     e( 61 - 61) =     14.55765  eV     1   --> A              
     e( 62 - 62) =     14.61357  eV     1   --> A              
     e( 63 - 63) =     14.97373  eV     1   --> A              
     e( 64 - 64) =     15.10080  eV     1   --> A              
     e( 65 - 65) =     15.42091  eV     1   --> A              
     e( 66 - 66) =     15.57664  eV     1   --> A              
     e( 67 - 67) =     15.80767  eV     1   --> A              
     e( 68 - 68) =     15.95422  eV     1   --> A              
     e( 69 - 69) =     18.92768  eV     1   --> A              
     e( 70 - 70) =     19.10725  eV     1   --> A              
     e( 71 - 71) =     19.18116  eV     1   --> A              
     e( 72 - 72) =     19.80449  eV     1   --> A              
     e( 73 - 73) =     20.02743  eV     1   --> A              
     e( 74 - 74) =     20.20855  eV     1   --> A              
     e( 75 - 75) =     20.36948  eV     1   --> A              
     e( 76 - 76) =     20.59720  eV     1   --> A              
     e( 77 - 77) =     20.92524  eV     1   --> A              
     e( 78 - 78) =     21.22531  eV     1   --> A              
     e( 79 - 79) =     21.38120  eV     1   --> A              
     e( 80 - 80) =     21.68934  eV     1   --> A              
     e( 81 - 81) =     21.79193  eV     1   --> A              
     e( 82 - 82) =     22.03820  eV     1   --> A              
     e( 83 - 83) =     22.26747  eV     1   --> A              
     e( 84 - 84) =     22.76087  eV     1   --> A              

 **************************************************************************

 **************************************************************************

                    xk=(   0.75000,   0.38750,   0.36250  )

     Band symmetry, C_1 (1)     point group:

     e(  1 -  4) =    -73.01167  eV     4   -->   4 A              
     e(  5 -  5) =    -39.58855  eV     1   --> A              
     e(  6 -  6) =    -39.58825  eV     1   --> A              
     e(  7 -  7) =    -39.58815  eV     1   --> A              
     e(  8 -  8) =    -39.58786  eV     1   --> A              
     e(  9 - 10) =    -39.58646  eV     2   -->   2 A              
     e( 11 - 12) =    -39.58600  eV     2   -->   2 A              
     e( 13 - 13) =    -39.33292  eV     1   --> A              
     e( 14 - 16) =    -39.33281  eV     3   -->   3 A              
     e( 17 - 17) =     -3.15564  eV     1   --> A              
     e( 18 - 18) =     -2.62995  eV     1   --> A              
     e( 19 - 19) =     -2.54604  eV     1   --> A              
     e( 20 - 20) =     -2.37234  eV     1   --> A              
     e( 21 - 21) =      0.22100  eV     1   --> A              
     e( 22 - 22) =      0.27238  eV     1   --> A              
     e( 23 - 23) =      0.47907  eV     1   --> A              
     e( 24 - 24) =      0.56663  eV     1   --> A              
     e( 25 - 25) =      5.32120  eV     1   --> A              
     e( 26 - 26) =      5.59111  eV     1   --> A              
     e( 27 - 27) =      5.87871  eV     1   --> A              
     e( 28 - 28) =      6.21693  eV     1   --> A              
     e( 29 - 29) =      6.52908  eV     1   --> A              
     e( 30 - 30) =      7.09478  eV     1   --> A              
     e( 31 - 31) =      7.29935  eV     1   --> A              
     e( 32 - 32) =      7.78604  eV     1   --> A              
     e( 33 - 33) =      8.09723  eV     1   --> A              
     e( 34 - 34) =      8.40479  eV     1   --> A              
     e( 35 - 35) =      8.42096  eV     1   --> A              
     e( 36 - 36) =      8.59322  eV     1   --> A              
     e( 37 - 37) =      9.36600  eV     1   --> A              
     e( 38 - 38) =      9.48119  eV     1   --> A              
     e( 39 - 39) =      9.58756  eV     1   --> A              
     e( 40 - 40) =      9.74272  eV     1   --> A              
     e( 41 - 41) =      9.95483  eV     1   --> A              
     e( 42 - 42) =     10.13407  eV     1   --> A              
     e( 43 - 43) =     10.29529  eV     1   --> A              
     e( 44 - 44) =     10.72593  eV     1   --> A              
     e( 45 - 45) =     11.52856  eV     1   --> A              
     e( 46 - 46) =     11.64441  eV     1   --> A              
     e( 47 - 47) =     11.72521  eV     1   --> A              
     e( 48 - 48) =     11.77601  eV     1   --> A              
     e( 49 - 49) =     11.81195  eV     1   --> A              
     e( 50 - 50) =     11.90792  eV     1   --> A              
     e( 51 - 51) =     11.99345  eV     1   --> A              
     e( 52 - 52) =     12.09114  eV     1   --> A              
     e( 53 - 53) =     12.18276  eV     1   --> A              
     e( 54 - 54) =     12.31252  eV     1   --> A              
     e( 55 - 55) =     12.37323  eV     1   --> A              
     e( 56 - 56) =     12.42427  eV     1   --> A              
     e( 57 - 57) =     13.90142  eV     1   --> A              
     e( 58 - 58) =     14.27423  eV     1   --> A              
     e( 59 - 59) =     14.31226  eV     1   --> A              
     e( 60 - 60) =     14.43866  eV     1   --> A              
     e( 61 - 61) =     14.55131  eV     1   --> A              
     e( 62 - 62) =     14.61130  eV     1   --> A              
     e( 63 - 63) =     14.97264  eV     1   --> A              
     e( 64 - 64) =     15.10404  eV     1   --> A              
     e( 65 - 65) =     15.42113  eV     1   --> A              
     e( 66 - 66) =     15.57685  eV     1   --> A              
     e( 67 - 67) =     15.80932  eV     1   --> A              
     e( 68 - 68) =     15.95797  eV     1   --> A              
     e( 69 - 69) =     18.92557  eV     1   --> A              
     e( 70 - 70) =     19.09219  eV     1   --> A              
     e( 71 - 71) =     19.18629  eV     1   --> A              
     e( 72 - 72) =     19.81577  eV     1   --> A              
     e( 73 - 73) =     20.06261  eV     1   --> A              
     e( 74 - 74) =     20.19367  eV     1   --> A              
     e( 75 - 75) =     20.37464  eV     1   --> A              
     e( 76 - 76) =     20.61828  eV     1   --> A              
     e( 77 - 77) =     20.91706  eV     1   --> A              
     e( 78 - 78) =     21.16765  eV     1   --> A              
     e( 79 - 79) =     21.35983  eV     1   --> A              
     e( 80 - 80) =     21.70457  eV     1   --> A              
     e( 81 - 81) =     21.80745  eV     1   --> A              
     e( 82 - 82) =     22.01075  eV     1   --> A              
     e( 83 - 83) =     22.28778  eV     1   --> A              
     e( 84 - 84) =     22.76372  eV     1   --> A              

 **************************************************************************

 **************************************************************************

                    xk=(   0.75000,   0.38125,   0.36875  )

     Band symmetry, C_1 (1)     point group:

     e(  1 -  4) =    -73.01166  eV     4   -->   4 A              
     e(  5 -  5) =    -39.58854  eV     1   --> A              
     e(  6 -  7) =    -39.58823  eV     2   -->   2 A              
     e(  8 -  8) =    -39.58784  eV     1   --> A              
     e(  9 - 10) =    -39.58645  eV     2   -->   2 A              
     e( 11 - 12) =    -39.58599  eV     2   -->   2 A              
     e( 13 - 13) =    -39.33291  eV     1   --> A              
     e( 14 - 16) =    -39.33280  eV     3   -->   3 A              
     e( 17 - 17) =     -3.15630  eV     1   --> A              
     e( 18 - 18) =     -2.60873  eV     1   --> A              
     e( 19 - 19) =     -2.56559  eV     1   --> A              
     e( 20 - 20) =     -2.37273  eV     1   --> A              
     e( 21 - 21) =      0.22079  eV     1   --> A              
     e( 22 - 22) =      0.27357  eV     1   --> A              
     e( 23 - 23) =      0.47637  eV     1   --> A              
     e( 24 - 24) =      0.56579  eV     1   --> A              
     e( 25 - 25) =      5.32197  eV     1   --> A              
     e( 26 - 26) =      5.60164  eV     1   --> A              
     e( 27 - 27) =      5.86793  eV     1   --> A              
     e( 28 - 28) =      6.21735  eV     1   --> A              
     e( 29 - 29) =      6.52931  eV     1   --> A              
     e( 30 - 30) =      7.10688  eV     1   --> A              
     e( 31 - 31) =      7.28398  eV     1   --> A              
     e( 32 - 32) =      7.78485  eV     1   --> A              
     e( 33 - 33) =      8.10615  eV     1   --> A              
     e( 34 - 34) =      8.39639  eV     1   --> A              
     e( 35 - 35) =      8.42435  eV     1   --> A              
     e( 36 - 36) =      8.59547  eV     1   --> A              
     e( 37 - 37) =      9.36155  eV     1   --> A              
     e( 38 - 38) =      9.49676  eV     1   --> A              
     e( 39 - 39) =      9.57554  eV     1   --> A              
     e( 40 - 40) =      9.74490  eV     1   --> A              
     e( 41 - 41) =      9.95110  eV     1   --> A              
     e( 42 - 42) =     10.14852  eV     1   --> A              
     e( 43 - 43) =     10.28750  eV     1   --> A              
     e( 44 - 44) =     10.72849  eV     1   --> A              
     e( 45 - 45) =     11.52596  eV     1   --> A              
     e( 46 - 46) =     11.64372  eV     1   --> A              
     e( 47 - 47) =     11.72640  eV     1   --> A              
     e( 48 - 48) =     11.77403  eV     1   --> A              
     e( 49 - 49) =     11.80572  eV     1   --> A              
     e( 50 - 50) =     11.91196  eV     1   --> A              
     e( 51 - 51) =     11.98806  eV     1   --> A              
     e( 52 - 52) =     12.09784  eV     1   --> A              
     e( 53 - 53) =     12.18011  eV     1   --> A              
     e( 54 - 54) =     12.31730  eV     1   --> A              
     e( 55 - 55) =     12.36899  eV     1   --> A              
     e( 56 - 56) =     12.42410  eV     1   --> A              
     e( 57 - 57) =     13.89968  eV     1   --> A              
     e( 58 - 58) =     14.27039  eV     1   --> A              
     e( 59 - 59) =     14.31957  eV     1   --> A              
     e( 60 - 60) =     14.43861  eV     1   --> A              
     e( 61 - 61) =     14.54552  eV     1   --> A              
     e( 62 - 62) =     14.60924  eV     1   --> A              
     e( 63 - 63) =     14.97212  eV     1   --> A              
     e( 64 - 64) =     15.10673  eV     1   --> A              
     e( 65 - 65) =     15.42216  eV     1   --> A              
     e( 66 - 66) =     15.57655  eV     1   --> A              
     e( 67 - 67) =     15.81143  eV     1   --> A              
     e( 68 - 68) =     15.96100  eV     1   --> A              
     e( 69 - 69) =     18.92354  eV     1   --> A              
     e( 70 - 70) =     19.07737  eV     1   --> A              
     e( 71 - 71) =     19.19284  eV     1   --> A              
     e( 72 - 72) =     19.82437  eV     1   --> A              
     e( 73 - 73) =     20.09462  eV     1   --> A              
     e( 74 - 74) =     20.17499  eV     1   --> A              
     e( 75 - 75) =     20.38559  eV     1   --> A              
     e( 76 - 76) =     20.64031  eV     1   --> A              
     e( 77 - 77) =     20.90711  eV     1   --> A              
     e( 78 - 78) =     21.11561  eV     1   --> A              
     e( 79 - 79) =     21.33633  eV     1   --> A              
     e( 80 - 80) =     21.71873  eV     1   --> A              
     e( 81 - 81) =     21.82607  eV     1   --> A              
     e( 82 - 82) =     21.98674  eV     1   --> A              
     e( 83 - 83) =     22.30859  eV     1   --> A              
     e( 84 - 84) =     22.76170  eV     1   --> A              

 **************************************************************************

 **************************************************************************

                    xk=(   0.75000,   0.37500,   0.37500  )

     Band symmetry, C_1 (1)     point group:

     e(  1 -  4) =    -73.01167  eV     4   -->   4 A              
     e(  5 -  5) =    -39.58852  eV     1   --> A              
     e(  6 -  7) =    -39.58821  eV     2   -->   2 A              
     e(  8 -  8) =    -39.58784  eV     1   --> A              
     e(  9 - 10) =    -39.58643  eV     2   -->   2 A              
     e( 11 - 12) =    -39.58598  eV     2   -->   2 A              
     e( 13 - 16) =    -39.33289  eV     4   -->   4 A              
     e( 17 - 17) =     -3.15652  eV     1   --> A              
     e( 18 - 18) =     -2.59147  eV     1   --> A              
     e( 19 - 19) =     -2.58231  eV     1   --> A              
     e( 20 - 20) =     -2.37286  eV     1   --> A              
     e( 21 - 21) =      0.22092  eV     1   --> A              
     e( 22 - 22) =      0.27474  eV     1   --> A              
     e( 23 - 23) =      0.47475  eV     1   --> A              
     e( 24 - 24) =      0.56518  eV     1   --> A              
     e( 25 - 25) =      5.32289  eV     1   --> A              
     e( 26 - 26) =      5.60878  eV     1   --> A              
     e( 27 - 27) =      5.86132  eV     1   --> A              
     e( 28 - 28) =      6.21787  eV     1   --> A              
     e( 29 - 29) =      6.52874  eV     1   --> A              
     e( 30 - 30) =      7.09682  eV     1   --> A              
     e( 31 - 31) =      7.29029  eV     1   --> A              
     e( 32 - 32) =      7.78428  eV     1   --> A              
     e( 33 - 33) =      8.11338  eV     1   --> A              
     e( 34 - 34) =      8.38850  eV     1   --> A              
     e( 35 - 35) =      8.42776  eV     1   --> A              
     e( 36 - 36) =      8.59767  eV     1   --> A              
     e( 37 - 37) =      9.35592  eV     1   --> A              
     e( 38 - 38) =      9.50954  eV     1   --> A              
     e( 39 - 39) =      9.56612  eV     1   --> A              
     e( 40 - 40) =      9.74756  eV     1   --> A              
     e( 41 - 41) =      9.94757  eV     1   --> A              
     e( 42 - 42) =     10.16083  eV     1   --> A              
     e( 43 - 43) =     10.28054  eV     1   --> A              
     e( 44 - 44) =     10.72969  eV     1   --> A              
     e( 45 - 45) =     11.52451  eV     1   --> A              
     e( 46 - 46) =     11.64273  eV     1   --> A              
     e( 47 - 47) =     11.72781  eV     1   --> A              
     e( 48 - 48) =     11.77272  eV     1   --> A              
     e( 49 - 49) =     11.79968  eV     1   --> A              
     e( 50 - 50) =     11.91442  eV     1   --> A              
     e( 51 - 51) =     11.98424  eV     1   --> A              
     e( 52 - 52) =     12.10385  eV     1   --> A              
     e( 53 - 53) =     12.17830  eV     1   --> A              
     e( 54 - 54) =     12.32244  eV     1   --> A              
     e( 55 - 55) =     12.36466  eV     1   --> A              
     e( 56 - 56) =     12.42419  eV     1   --> A              
     e( 57 - 57) =     13.89851  eV     1   --> A              
     e( 58 - 58) =     14.26149  eV     1   --> A              
     e( 59 - 59) =     14.33132  eV     1   --> A              
     e( 60 - 60) =     14.43860  eV     1   --> A              
     e( 61 - 61) =     14.54037  eV     1   --> A              
     e( 62 - 62) =     14.60742  eV     1   --> A              
     e( 63 - 63) =     14.97220  eV     1   --> A              
     e( 64 - 64) =     15.10874  eV     1   --> A              
     e( 65 - 65) =     15.42397  eV     1   --> A              
     e( 66 - 66) =     15.57578  eV     1   --> A              
     e( 67 - 67) =     15.81394  eV     1   --> A              
     e( 68 - 68) =     15.96327  eV     1   --> A              
     e( 69 - 69) =     18.92154  eV     1   --> A              
     e( 70 - 70) =     19.06353  eV     1   --> A              
     e( 71 - 71) =     19.20033  eV     1   --> A              
     e( 72 - 72) =     19.82976  eV     1   --> A              
     e( 73 - 73) =     20.11488  eV     1   --> A              
     e( 74 - 74) =     20.16281  eV     1   --> A              
     e( 75 - 75) =     20.40267  eV     1   --> A              
     e( 76 - 76) =     20.65711  eV     1   --> A              
     e( 77 - 77) =     20.89679  eV     1   --> A              
     e( 78 - 78) =     21.07307  eV     1   --> A              
     e( 79 - 79) =     21.31138  eV     1   --> A              
     e( 80 - 80) =     21.72862  eV     1   --> A              
     e( 81 - 81) =     21.84776  eV     1   --> A              
     e( 82 - 82) =     21.96887  eV     1   --> A              
     e( 83 - 83) =     22.32884  eV     1   --> A              
     e( 84 - 84) =     22.75490  eV     1   --> A              

 **************************************************************************

     BANDS        :     36.86s CPU     49.78s WALL


   This run was terminated on:  10:21:10  22Sep2023            

=------------------------------------------------------------------------------=
   JOB DONE.
=------------------------------------------------------------------------------=
