
     Program PWSCF v.7.1 starts on 22Sep2023 at 10:17:39 

     This program is part of the open-source Quantum ESPRESSO suite
     for quantum simulation of materials; please cite
         "P. Giannozzi et al., J. Phys.:Condens. Matter 21 395502 (2009);
         "P. Giannozzi et al., J. Phys.:Condens. Matter 29 465901 (2017);
         "P. Giannozzi et al., J. Chem. Phys. 152 154105 (2020);
          URL http://www.quantum-espresso.org", 
     in publications or presentations arising from this work. More details at
     http://www.quantum-espresso.org/quote

     Parallel version (MPI & OpenMP), running on      10 processor cores
     Number of MPI processes:                10
     Threads/MPI process:                     1

     MPI processes distributed on     1 nodes
     11778 MiB available memory on the printing compute node when the environment starts

     Waiting for input...
     Reading input from standard input

     Current dimensions of program PWSCF are:
     Max number of different atomic species (ntypx) = 10
     Max number of k-points (npk) =  40000
     Max angular momentum in pseudopotentials (lmaxx) =  4

     Atomic positions and unit cell read from directory:
     ./work/pwscf.save/

     file S.pz-n-kjpaw_psl.1.0.0.UPF: wavefunction(s)  3S 3P renormalized
     file Fe.pz-spn-kjpaw_psl.1.0.0.UPF: wavefunction(s)  3P 3D renormalized
     Message from routine setup:
     using ibrav=0 with symmetry is DISCOURAGED, use correct ibrav instead

     R & G space division:  proc/nbgrp/npool/nimage =      10
     Subspace diagonalization in iterative solution of the eigenvalue problem:
     a serial algorithm will be used


     Parallelization info
     --------------------
     sticks:   dense  smooth     PW     G-vecs:    dense   smooth      PW
     Min         411     236     67                19790     8572    1313
     Max         413     237     68                19791     8575    1314
     Sum        4117    2361    673               197909    85735   13133

     Using Slab Decomposition



     bravais-lattice index     =            0
     lattice parameter (alat)  =      10.1985  a.u.
     unit-cell volume          =    1060.7436 (a.u.)^3
     number of atoms/cell      =           12
     number of atomic types    =            2
     number of electrons       =       112.00
     number of Kohn-Sham states=           84
     kinetic-energy cutoff     =      71.0000  Ry
     charge density cutoff     =     496.0000  Ry
     Exchange-correlation= SLA  PZ   NOGX NOGC
                           (   1   1   0   0   0   0   0)

     celldm(1)=  10.198512  celldm(2)=   0.000000  celldm(3)=   0.000000
     celldm(4)=   0.000000  celldm(5)=   0.000000  celldm(6)=   0.000000

     crystal axes: (cart. coord. in units of alat)
               a(1) = (   1.000000   0.000000   0.000000 )  
               a(2) = (   0.000000   1.000000   0.000000 )  
               a(3) = (   0.000000   0.000000   1.000000 )  

     reciprocal axes: (cart. coord. in units 2 pi/alat)
               b(1) = (  1.000000  0.000000  0.000000 )  
               b(2) = (  0.000000  1.000000  0.000000 )  
               b(3) = (  0.000000  0.000000  1.000000 )  


     PseudoPot. # 1 for S  read from file:
     ./../../pseudo/psl100_LDA/S.pz-n-kjpaw_psl.1.0.0.UPF
     MD5 check sum: 0ee4e1e73514933f8aec84061bf7de7e
     Pseudo is Projector augmented-wave + core cor, Zval =  6.0
     Generated using 'atomic' code by A. Dal Corso  v.7.2
     Shape of augmentation charge: PSQ
     Using radial grid of 1151 points,  6 beta functions with: 
                l(1) =   0
                l(2) =   0
                l(3) =   1
                l(4) =   1
                l(5) =   2
                l(6) =   2
     Q(r) pseudized with 0 coefficients 


     PseudoPot. # 2 for Fe read from file:
     ./../../pseudo/psl100_LDA/Fe.pz-spn-kjpaw_psl.1.0.0.UPF
     MD5 check sum: d16cd61888efbf143f57651db256b494
     Pseudo is Projector augmented-wave + core cor, Zval = 16.0
     Generated using 'atomic' code by A. Dal Corso  v.7.2
     Shape of augmentation charge: PSQ
     Using radial grid of 1191 points,  6 beta functions with: 
                l(1) =   0
                l(2) =   0
                l(3) =   1
                l(4) =   1
                l(5) =   2
                l(6) =   2
     Q(r) pseudized with 0 coefficients 


     atomic species   valence    mass     pseudopotential
        S              6.00    32.06750     S ( 1.00)
        Fe            16.00    55.84500     Fe( 1.00)

     24 Sym. Ops., with inversion, found (18 have fractional translation)


                                    s                        frac. trans.

      isym =  1     identity                                     

 cryst.   s( 1) = (     1          0          0      )
                  (     0          1          0      )
                  (     0          0          1      )

 cart.    s( 1) = (  1.0000000  0.0000000  0.0000000 )
                  (  0.0000000  1.0000000  0.0000000 )
                  (  0.0000000  0.0000000  1.0000000 )


      isym =  2     180 deg rotation - cart. axis [0,0,1]        

 cryst.   s( 2) = (    -1          0          0      )    f =( -0.5000000 )
                  (     0         -1          0      )       (  0.0000000 )
                  (     0          0          1      )       ( -0.5000000 )

 cart.    s( 2) = ( -1.0000000  0.0000000  0.0000000 )    f =( -0.5000000 )
                  (  0.0000000 -1.0000000  0.0000000 )       (  0.0000000 )
                  (  0.0000000  0.0000000  1.0000000 )       ( -0.5000000 )


      isym =  3     180 deg rotation - cart. axis [0,1,0]        

 cryst.   s( 3) = (    -1          0          0      )    f =(  0.0000000 )
                  (     0          1          0      )       ( -0.5000000 )
                  (     0          0         -1      )       ( -0.5000000 )

 cart.    s( 3) = ( -1.0000000  0.0000000  0.0000000 )    f =(  0.0000000 )
                  (  0.0000000  1.0000000  0.0000000 )       ( -0.5000000 )
                  (  0.0000000  0.0000000 -1.0000000 )       ( -0.5000000 )


      isym =  4     180 deg rotation - cart. axis [1,0,0]        

 cryst.   s( 4) = (     1          0          0      )    f =(  0.5000000 )
                  (     0         -1          0      )       ( -0.5000000 )
                  (     0          0         -1      )       (  0.0000000 )

 cart.    s( 4) = (  1.0000000  0.0000000  0.0000000 )    f =(  0.5000000 )
                  (  0.0000000 -1.0000000  0.0000000 )       ( -0.5000000 )
                  (  0.0000000  0.0000000 -1.0000000 )       (  0.0000000 )


      isym =  5     120 deg rotation - cart. axis [-1,-1,-1]     

 cryst.   s( 5) = (     0          0          1      )
                  (     1          0          0      )
                  (     0          1          0      )

 cart.    s( 5) = (  0.0000000  1.0000000  0.0000000 )
                  (  0.0000000  0.0000000  1.0000000 )
                  (  1.0000000  0.0000000  0.0000000 )


      isym =  6     120 deg rotation - cart. axis [-1,1,1]       

 cryst.   s( 6) = (     0          0         -1      )    f =(  0.0000000 )
                  (    -1          0          0      )       ( -0.5000000 )
                  (     0          1          0      )       ( -0.5000000 )

 cart.    s( 6) = (  0.0000000 -1.0000000  0.0000000 )    f =(  0.0000000 )
                  (  0.0000000  0.0000000  1.0000000 )       ( -0.5000000 )
                  ( -1.0000000  0.0000000  0.0000000 )       ( -0.5000000 )


      isym =  7     120 deg rotation - cart. axis [1,1,-1]       

 cryst.   s( 7) = (     0          0         -1      )    f =(  0.5000000 )
                  (     1          0          0      )       ( -0.5000000 )
                  (     0         -1          0      )       (  0.0000000 )

 cart.    s( 7) = (  0.0000000  1.0000000  0.0000000 )    f =(  0.5000000 )
                  (  0.0000000  0.0000000 -1.0000000 )       ( -0.5000000 )
                  ( -1.0000000  0.0000000  0.0000000 )       (  0.0000000 )


      isym =  8     120 deg rotation - cart. axis [1,-1,1]       

 cryst.   s( 8) = (     0          0          1      )    f =( -0.5000000 )
                  (    -1          0          0      )       (  0.0000000 )
                  (     0         -1          0      )       ( -0.5000000 )

 cart.    s( 8) = (  0.0000000 -1.0000000  0.0000000 )    f =( -0.5000000 )
                  (  0.0000000  0.0000000 -1.0000000 )       (  0.0000000 )
                  (  1.0000000  0.0000000  0.0000000 )       ( -0.5000000 )


      isym =  9     120 deg rotation - cart. axis [1,1,1]        

 cryst.   s( 9) = (     0          1          0      )
                  (     0          0          1      )
                  (     1          0          0      )

 cart.    s( 9) = (  0.0000000  0.0000000  1.0000000 )
                  (  1.0000000  0.0000000  0.0000000 )
                  (  0.0000000  1.0000000  0.0000000 )


      isym = 10     120 deg rotation - cart. axis [-1,1,-1]      

 cryst.   s(10) = (     0         -1          0      )    f =(  0.5000000 )
                  (     0          0         -1      )       ( -0.5000000 )
                  (     1          0          0      )       (  0.0000000 )

 cart.    s(10) = (  0.0000000  0.0000000  1.0000000 )    f =(  0.5000000 )
                  ( -1.0000000  0.0000000  0.0000000 )       ( -0.5000000 )
                  (  0.0000000 -1.0000000  0.0000000 )       (  0.0000000 )


      isym = 11     120 deg rotation - cart. axis [1,-1,-1]      

 cryst.   s(11) = (     0         -1          0      )    f =( -0.5000000 )
                  (     0          0          1      )       (  0.0000000 )
                  (    -1          0          0      )       ( -0.5000000 )

 cart.    s(11) = (  0.0000000  0.0000000 -1.0000000 )    f =( -0.5000000 )
                  ( -1.0000000  0.0000000  0.0000000 )       (  0.0000000 )
                  (  0.0000000  1.0000000  0.0000000 )       ( -0.5000000 )


      isym = 12     120 deg rotation - cart. axis [-1,-1,1]      

 cryst.   s(12) = (     0          1          0      )    f =(  0.0000000 )
                  (     0          0         -1      )       ( -0.5000000 )
                  (    -1          0          0      )       ( -0.5000000 )

 cart.    s(12) = (  0.0000000  0.0000000 -1.0000000 )    f =(  0.0000000 )
                  (  1.0000000  0.0000000  0.0000000 )       ( -0.5000000 )
                  (  0.0000000 -1.0000000  0.0000000 )       ( -0.5000000 )


      isym = 13     inversion                                    

 cryst.   s(13) = (    -1          0          0      )
                  (     0         -1          0      )
                  (     0          0         -1      )

 cart.    s(13) = ( -1.0000000  0.0000000  0.0000000 )
                  (  0.0000000 -1.0000000  0.0000000 )
                  (  0.0000000  0.0000000 -1.0000000 )


      isym = 14     inv. 180 deg rotation - cart. axis [0,0,1]   

 cryst.   s(14) = (     1          0          0      )    f =(  0.5000000 )
                  (     0          1          0      )       (  0.0000000 )
                  (     0          0         -1      )       ( -0.5000000 )

 cart.    s(14) = (  1.0000000  0.0000000  0.0000000 )    f =(  0.5000000 )
                  (  0.0000000  1.0000000  0.0000000 )       (  0.0000000 )
                  (  0.0000000  0.0000000 -1.0000000 )       ( -0.5000000 )


      isym = 15     inv. 180 deg rotation - cart. axis [0,1,0]   

 cryst.   s(15) = (     1          0          0      )    f =(  0.0000000 )
                  (     0         -1          0      )       ( -0.5000000 )
                  (     0          0          1      )       ( -0.5000000 )

 cart.    s(15) = (  1.0000000  0.0000000  0.0000000 )    f =(  0.0000000 )
                  (  0.0000000 -1.0000000  0.0000000 )       ( -0.5000000 )
                  (  0.0000000  0.0000000  1.0000000 )       ( -0.5000000 )


      isym = 16     inv. 180 deg rotation - cart. axis [1,0,0]   

 cryst.   s(16) = (    -1          0          0      )    f =( -0.5000000 )
                  (     0          1          0      )       ( -0.5000000 )
                  (     0          0          1      )       (  0.0000000 )

 cart.    s(16) = ( -1.0000000  0.0000000  0.0000000 )    f =( -0.5000000 )
                  (  0.0000000  1.0000000  0.0000000 )       ( -0.5000000 )
                  (  0.0000000  0.0000000  1.0000000 )       (  0.0000000 )


      isym = 17     inv. 120 deg rotation - cart. axis [-1,-1,-1]

 cryst.   s(17) = (     0          0         -1      )
                  (    -1          0          0      )
                  (     0         -1          0      )

 cart.    s(17) = (  0.0000000 -1.0000000  0.0000000 )
                  (  0.0000000  0.0000000 -1.0000000 )
                  ( -1.0000000  0.0000000  0.0000000 )


      isym = 18     inv. 120 deg rotation - cart. axis [-1,1,1]  

 cryst.   s(18) = (     0          0          1      )    f =(  0.0000000 )
                  (     1          0          0      )       ( -0.5000000 )
                  (     0         -1          0      )       ( -0.5000000 )

 cart.    s(18) = (  0.0000000  1.0000000  0.0000000 )    f =(  0.0000000 )
                  (  0.0000000  0.0000000 -1.0000000 )       ( -0.5000000 )
                  (  1.0000000  0.0000000  0.0000000 )       ( -0.5000000 )


      isym = 19     inv. 120 deg rotation - cart. axis [1,1,-1]  

 cryst.   s(19) = (     0          0          1      )    f =( -0.5000000 )
                  (    -1          0          0      )       ( -0.5000000 )
                  (     0          1          0      )       (  0.0000000 )

 cart.    s(19) = (  0.0000000 -1.0000000  0.0000000 )    f =( -0.5000000 )
                  (  0.0000000  0.0000000  1.0000000 )       ( -0.5000000 )
                  (  1.0000000  0.0000000  0.0000000 )       (  0.0000000 )


      isym = 20     inv. 120 deg rotation - cart. axis [1,-1,1]  

 cryst.   s(20) = (     0          0         -1      )    f =(  0.5000000 )
                  (     1          0          0      )       (  0.0000000 )
                  (     0          1          0      )       ( -0.5000000 )

 cart.    s(20) = (  0.0000000  1.0000000  0.0000000 )    f =(  0.5000000 )
                  (  0.0000000  0.0000000  1.0000000 )       (  0.0000000 )
                  ( -1.0000000  0.0000000  0.0000000 )       ( -0.5000000 )


      isym = 21     inv. 120 deg rotation - cart. axis [1,1,1]   

 cryst.   s(21) = (     0         -1          0      )
                  (     0          0         -1      )
                  (    -1          0          0      )

 cart.    s(21) = (  0.0000000  0.0000000 -1.0000000 )
                  ( -1.0000000  0.0000000  0.0000000 )
                  (  0.0000000 -1.0000000  0.0000000 )


      isym = 22     inv. 120 deg rotation - cart. axis [-1,1,-1] 

 cryst.   s(22) = (     0          1          0      )    f =( -0.5000000 )
                  (     0          0          1      )       ( -0.5000000 )
                  (    -1          0          0      )       (  0.0000000 )

 cart.    s(22) = (  0.0000000  0.0000000 -1.0000000 )    f =( -0.5000000 )
                  (  1.0000000  0.0000000  0.0000000 )       ( -0.5000000 )
                  (  0.0000000  1.0000000  0.0000000 )       (  0.0000000 )


      isym = 23     inv. 120 deg rotation - cart. axis [1,-1,-1] 

 cryst.   s(23) = (     0          1          0      )    f =(  0.5000000 )
                  (     0          0         -1      )       (  0.0000000 )
                  (     1          0          0      )       ( -0.5000000 )

 cart.    s(23) = (  0.0000000  0.0000000  1.0000000 )    f =(  0.5000000 )
                  (  1.0000000  0.0000000  0.0000000 )       (  0.0000000 )
                  (  0.0000000 -1.0000000  0.0000000 )       ( -0.5000000 )


      isym = 24     inv. 120 deg rotation - cart. axis [-1,-1,1] 

 cryst.   s(24) = (     0         -1          0      )    f =(  0.0000000 )
                  (     0          0          1      )       ( -0.5000000 )
                  (     1          0          0      )       ( -0.5000000 )

 cart.    s(24) = (  0.0000000  0.0000000  1.0000000 )    f =(  0.0000000 )
                  ( -1.0000000  0.0000000  0.0000000 )       ( -0.5000000 )
                  (  0.0000000  1.0000000  0.0000000 )       ( -0.5000000 )


   Cartesian axes

     site n.     atom                  positions (alat units)
         1           Fe  tau(   1) = (   0.0000000   0.5000000   0.5000000  )
         2           Fe  tau(   2) = (   0.0000000   0.0000000   0.0000000  )
         3           Fe  tau(   3) = (   0.5000000   0.5000000   0.0000000  )
         4           Fe  tau(   4) = (   0.5000000   0.0000000   0.5000000  )
         5           S   tau(   5) = (   0.3853800   0.1146200   0.8853800  )
         6           S   tau(   6) = (   0.3853800   0.3853800   0.3853800  )
         7           S   tau(   7) = (   0.1146200   0.8853800   0.3853800  )
         8           S   tau(   8) = (   0.1146200   0.6146200   0.8853800  )
         9           S   tau(   9) = (   0.8853800   0.1146200   0.6146200  )
        10           S   tau(  10) = (   0.8853800   0.3853800   0.1146200  )
        11           S   tau(  11) = (   0.6146200   0.8853800   0.1146200  )
        12           S   tau(  12) = (   0.6146200   0.6146200   0.6146200  )

   Crystallographic axes

     site n.     atom                  positions (cryst. coord.)
         1           Fe  tau(   1) = (  0.0000000  0.5000000  0.5000000  )
         2           Fe  tau(   2) = (  0.0000000  0.0000000  0.0000000  )
         3           Fe  tau(   3) = (  0.5000000  0.5000000  0.0000000  )
         4           Fe  tau(   4) = (  0.5000000  0.0000000  0.5000000  )
         5           S   tau(   5) = (  0.3853800  0.1146200  0.8853800  )
         6           S   tau(   6) = (  0.3853800  0.3853800  0.3853800  )
         7           S   tau(   7) = (  0.1146200  0.8853800  0.3853800  )
         8           S   tau(   8) = (  0.1146200  0.6146200  0.8853800  )
         9           S   tau(   9) = (  0.8853800  0.1146200  0.6146200  )
        10           S   tau(  10) = (  0.8853800  0.3853800  0.1146200  )
        11           S   tau(  11) = (  0.6146200  0.8853800  0.1146200  )
        12           S   tau(  12) = (  0.6146200  0.6146200  0.6146200  )

     number of k points=   101  Methfessel-Paxton smearing, width (Ry)=  0.0100
                       cart. coord. in units 2pi/alat
        k(    1) = (   0.5000000   0.2500000   0.7500000), wk =   0.0198020
        k(    2) = (   0.4750000   0.2625000   0.7125000), wk =   0.0198020
        k(    3) = (   0.4500000   0.2750000   0.6750000), wk =   0.0198020
        k(    4) = (   0.4250000   0.2875000   0.6375000), wk =   0.0198020
        k(    5) = (   0.4000000   0.3000000   0.6000000), wk =   0.0198020
        k(    6) = (   0.3750000   0.3125000   0.5625000), wk =   0.0198020
        k(    7) = (   0.3500000   0.3250000   0.5250000), wk =   0.0198020
        k(    8) = (   0.3250000   0.3375000   0.4875000), wk =   0.0198020
        k(    9) = (   0.3000000   0.3500000   0.4500000), wk =   0.0198020
        k(   10) = (   0.2750000   0.3625000   0.4125000), wk =   0.0198020
        k(   11) = (   0.2500000   0.3750000   0.3750000), wk =   0.0198020
        k(   12) = (   0.2250000   0.3875000   0.3375000), wk =   0.0198020
        k(   13) = (   0.2000000   0.4000000   0.3000000), wk =   0.0198020
        k(   14) = (   0.1750000   0.4125000   0.2625000), wk =   0.0198020
        k(   15) = (   0.1500000   0.4250000   0.2250000), wk =   0.0198020
        k(   16) = (   0.1250000   0.4375000   0.1875000), wk =   0.0198020
        k(   17) = (   0.1000000   0.4500000   0.1500000), wk =   0.0198020
        k(   18) = (   0.0750000   0.4625000   0.1125000), wk =   0.0198020
        k(   19) = (   0.0500000   0.4750000   0.0750000), wk =   0.0198020
        k(   20) = (   0.0250000   0.4875000   0.0375000), wk =   0.0198020
        k(   21) = (   0.0000000   0.5000000   0.0000000), wk =   0.0198020
        k(   22) = (   0.0000000   0.4750000   0.0000000), wk =   0.0198020
        k(   23) = (   0.0000000   0.4500000   0.0000000), wk =   0.0198020
        k(   24) = (   0.0000000   0.4250000   0.0000000), wk =   0.0198020
        k(   25) = (   0.0000000   0.4000000   0.0000000), wk =   0.0198020
        k(   26) = (   0.0000000   0.3750000   0.0000000), wk =   0.0198020
        k(   27) = (   0.0000000   0.3500000   0.0000000), wk =   0.0198020
        k(   28) = (   0.0000000   0.3250000   0.0000000), wk =   0.0198020
        k(   29) = (   0.0000000   0.3000000   0.0000000), wk =   0.0198020
        k(   30) = (   0.0000000   0.2750000   0.0000000), wk =   0.0198020
        k(   31) = (   0.0000000   0.2500000   0.0000000), wk =   0.0198020
        k(   32) = (   0.0000000   0.2250000   0.0000000), wk =   0.0198020
        k(   33) = (   0.0000000   0.2000000   0.0000000), wk =   0.0198020
        k(   34) = (   0.0000000   0.1750000   0.0000000), wk =   0.0198020
        k(   35) = (   0.0000000   0.1500000   0.0000000), wk =   0.0198020
        k(   36) = (   0.0000000   0.1250000   0.0000000), wk =   0.0198020
        k(   37) = (   0.0000000   0.1000000   0.0000000), wk =   0.0198020
        k(   38) = (   0.0000000   0.0750000   0.0000000), wk =   0.0198020
        k(   39) = (   0.0000000   0.0500000   0.0000000), wk =   0.0198020
        k(   40) = (   0.0000000   0.0250000   0.0000000), wk =   0.0198020
        k(   41) = (   0.0000000   0.0000000   0.0000000), wk =   0.0198020
        k(   42) = (   0.0000000   0.0250000   0.0250000), wk =   0.0198020
        k(   43) = (   0.0000000   0.0500000   0.0500000), wk =   0.0198020
        k(   44) = (   0.0000000   0.0750000   0.0750000), wk =   0.0198020
        k(   45) = (   0.0000000   0.1000000   0.1000000), wk =   0.0198020
        k(   46) = (   0.0000000   0.1250000   0.1250000), wk =   0.0198020
        k(   47) = (   0.0000000   0.1500000   0.1500000), wk =   0.0198020
        k(   48) = (   0.0000000   0.1750000   0.1750000), wk =   0.0198020
        k(   49) = (   0.0000000   0.2000000   0.2000000), wk =   0.0198020
        k(   50) = (   0.0000000   0.2250000   0.2250000), wk =   0.0198020
        k(   51) = (   0.0000000   0.2500000   0.2500000), wk =   0.0198020
        k(   52) = (   0.0000000   0.2750000   0.2750000), wk =   0.0198020
        k(   53) = (   0.0000000   0.3000000   0.3000000), wk =   0.0198020
        k(   54) = (   0.0000000   0.3250000   0.3250000), wk =   0.0198020
        k(   55) = (   0.0000000   0.3500000   0.3500000), wk =   0.0198020
        k(   56) = (   0.0000000   0.3750000   0.3750000), wk =   0.0198020
        k(   57) = (   0.0000000   0.4000000   0.4000000), wk =   0.0198020
        k(   58) = (   0.0000000   0.4250000   0.4250000), wk =   0.0198020
        k(   59) = (   0.0000000   0.4500000   0.4500000), wk =   0.0198020
        k(   60) = (   0.0000000   0.4750000   0.4750000), wk =   0.0198020
        k(   61) = (   0.0000000   0.5000000   0.5000000), wk =   0.0198020
        k(   62) = (   0.0375000   0.5000000   0.4875000), wk =   0.0198020
        k(   63) = (   0.0750000   0.5000000   0.4750000), wk =   0.0198020
        k(   64) = (   0.1125000   0.5000000   0.4625000), wk =   0.0198020
        k(   65) = (   0.1500000   0.5000000   0.4500000), wk =   0.0198020
        k(   66) = (   0.1875000   0.5000000   0.4375000), wk =   0.0198020
        k(   67) = (   0.2250000   0.5000000   0.4250000), wk =   0.0198020
        k(   68) = (   0.2625000   0.5000000   0.4125000), wk =   0.0198020
        k(   69) = (   0.3000000   0.5000000   0.4000000), wk =   0.0198020
        k(   70) = (   0.3375000   0.5000000   0.3875000), wk =   0.0198020
        k(   71) = (   0.3750000   0.5000000   0.3750000), wk =   0.0198020
        k(   72) = (   0.4125000   0.5000000   0.3625000), wk =   0.0198020
        k(   73) = (   0.4500000   0.5000000   0.3500000), wk =   0.0198020
        k(   74) = (   0.4875000   0.5000000   0.3375000), wk =   0.0198020
        k(   75) = (   0.5250000   0.5000000   0.3250000), wk =   0.0198020
        k(   76) = (   0.5625000   0.5000000   0.3125000), wk =   0.0198020
        k(   77) = (   0.6000000   0.5000000   0.3000000), wk =   0.0198020
        k(   78) = (   0.6375000   0.5000000   0.2875000), wk =   0.0198020
        k(   79) = (   0.6750000   0.5000000   0.2750000), wk =   0.0198020
        k(   80) = (   0.7125000   0.5000000   0.2625000), wk =   0.0198020
        k(   81) = (   0.7500000   0.5000000   0.2500000), wk =   0.0198020
        k(   82) = (   0.7500000   0.4937500   0.2562500), wk =   0.0198020
        k(   83) = (   0.7500000   0.4875000   0.2625000), wk =   0.0198020
        k(   84) = (   0.7500000   0.4812500   0.2687500), wk =   0.0198020
        k(   85) = (   0.7500000   0.4750000   0.2750000), wk =   0.0198020
        k(   86) = (   0.7500000   0.4687500   0.2812500), wk =   0.0198020
        k(   87) = (   0.7500000   0.4625000   0.2875000), wk =   0.0198020
        k(   88) = (   0.7500000   0.4562500   0.2937500), wk =   0.0198020
        k(   89) = (   0.7500000   0.4500000   0.3000000), wk =   0.0198020
        k(   90) = (   0.7500000   0.4437500   0.3062500), wk =   0.0198020
        k(   91) = (   0.7500000   0.4375000   0.3125000), wk =   0.0198020
        k(   92) = (   0.7500000   0.4312500   0.3187500), wk =   0.0198020
        k(   93) = (   0.7500000   0.4250000   0.3250000), wk =   0.0198020
        k(   94) = (   0.7500000   0.4187500   0.3312500), wk =   0.0198020
        k(   95) = (   0.7500000   0.4125000   0.3375000), wk =   0.0198020
        k(   96) = (   0.7500000   0.4062500   0.3437500), wk =   0.0198020
        k(   97) = (   0.7500000   0.4000000   0.3500000), wk =   0.0198020
        k(   98) = (   0.7500000   0.3937500   0.3562500), wk =   0.0198020
        k(   99) = (   0.7500000   0.3875000   0.3625000), wk =   0.0198020
        k(  100) = (   0.7500000   0.3812500   0.3687500), wk =   0.0198020
        k(  101) = (   0.7500000   0.3750000   0.3750000), wk =   0.0198020

                       cryst. coord.
        k(    1) = (   0.5000000   0.2500000   0.7500000), wk =   0.0198020
        k(    2) = (   0.4750000   0.2625000   0.7125000), wk =   0.0198020
        k(    3) = (   0.4500000   0.2750000   0.6750000), wk =   0.0198020
        k(    4) = (   0.4250000   0.2875000   0.6375000), wk =   0.0198020
        k(    5) = (   0.4000000   0.3000000   0.6000000), wk =   0.0198020
        k(    6) = (   0.3750000   0.3125000   0.5625000), wk =   0.0198020
        k(    7) = (   0.3500000   0.3250000   0.5250000), wk =   0.0198020
        k(    8) = (   0.3250000   0.3375000   0.4875000), wk =   0.0198020
        k(    9) = (   0.3000000   0.3500000   0.4500000), wk =   0.0198020
        k(   10) = (   0.2750000   0.3625000   0.4125000), wk =   0.0198020
        k(   11) = (   0.2500000   0.3750000   0.3750000), wk =   0.0198020
        k(   12) = (   0.2250000   0.3875000   0.3375000), wk =   0.0198020
        k(   13) = (   0.2000000   0.4000000   0.3000000), wk =   0.0198020
        k(   14) = (   0.1750000   0.4125000   0.2625000), wk =   0.0198020
        k(   15) = (   0.1500000   0.4250000   0.2250000), wk =   0.0198020
        k(   16) = (   0.1250000   0.4375000   0.1875000), wk =   0.0198020
        k(   17) = (   0.1000000   0.4500000   0.1500000), wk =   0.0198020
        k(   18) = (   0.0750000   0.4625000   0.1125000), wk =   0.0198020
        k(   19) = (   0.0500000   0.4750000   0.0750000), wk =   0.0198020
        k(   20) = (   0.0250000   0.4875000   0.0375000), wk =   0.0198020
        k(   21) = (   0.0000000   0.5000000   0.0000000), wk =   0.0198020
        k(   22) = (   0.0000000   0.4750000   0.0000000), wk =   0.0198020
        k(   23) = (   0.0000000   0.4500000   0.0000000), wk =   0.0198020
        k(   24) = (   0.0000000   0.4250000   0.0000000), wk =   0.0198020
        k(   25) = (   0.0000000   0.4000000   0.0000000), wk =   0.0198020
        k(   26) = (   0.0000000   0.3750000   0.0000000), wk =   0.0198020
        k(   27) = (   0.0000000   0.3500000   0.0000000), wk =   0.0198020
        k(   28) = (   0.0000000   0.3250000   0.0000000), wk =   0.0198020
        k(   29) = (   0.0000000   0.3000000   0.0000000), wk =   0.0198020
        k(   30) = (   0.0000000   0.2750000   0.0000000), wk =   0.0198020
        k(   31) = (   0.0000000   0.2500000   0.0000000), wk =   0.0198020
        k(   32) = (   0.0000000   0.2250000   0.0000000), wk =   0.0198020
        k(   33) = (   0.0000000   0.2000000   0.0000000), wk =   0.0198020
        k(   34) = (   0.0000000   0.1750000   0.0000000), wk =   0.0198020
        k(   35) = (   0.0000000   0.1500000   0.0000000), wk =   0.0198020
        k(   36) = (   0.0000000   0.1250000   0.0000000), wk =   0.0198020
        k(   37) = (   0.0000000   0.1000000   0.0000000), wk =   0.0198020
        k(   38) = (   0.0000000   0.0750000   0.0000000), wk =   0.0198020
        k(   39) = (   0.0000000   0.0500000   0.0000000), wk =   0.0198020
        k(   40) = (   0.0000000   0.0250000   0.0000000), wk =   0.0198020
        k(   41) = (   0.0000000   0.0000000   0.0000000), wk =   0.0198020
        k(   42) = (   0.0000000   0.0250000   0.0250000), wk =   0.0198020
        k(   43) = (   0.0000000   0.0500000   0.0500000), wk =   0.0198020
        k(   44) = (   0.0000000   0.0750000   0.0750000), wk =   0.0198020
        k(   45) = (   0.0000000   0.1000000   0.1000000), wk =   0.0198020
        k(   46) = (   0.0000000   0.1250000   0.1250000), wk =   0.0198020
        k(   47) = (   0.0000000   0.1500000   0.1500000), wk =   0.0198020
        k(   48) = (   0.0000000   0.1750000   0.1750000), wk =   0.0198020
        k(   49) = (   0.0000000   0.2000000   0.2000000), wk =   0.0198020
        k(   50) = (   0.0000000   0.2250000   0.2250000), wk =   0.0198020
        k(   51) = (   0.0000000   0.2500000   0.2500000), wk =   0.0198020
        k(   52) = (   0.0000000   0.2750000   0.2750000), wk =   0.0198020
        k(   53) = (   0.0000000   0.3000000   0.3000000), wk =   0.0198020
        k(   54) = (   0.0000000   0.3250000   0.3250000), wk =   0.0198020
        k(   55) = (   0.0000000   0.3500000   0.3500000), wk =   0.0198020
        k(   56) = (   0.0000000   0.3750000   0.3750000), wk =   0.0198020
        k(   57) = (   0.0000000   0.4000000   0.4000000), wk =   0.0198020
        k(   58) = (   0.0000000   0.4250000   0.4250000), wk =   0.0198020
        k(   59) = (   0.0000000   0.4500000   0.4500000), wk =   0.0198020
        k(   60) = (   0.0000000   0.4750000   0.4750000), wk =   0.0198020
        k(   61) = (   0.0000000   0.5000000   0.5000000), wk =   0.0198020
        k(   62) = (   0.0375000   0.5000000   0.4875000), wk =   0.0198020
        k(   63) = (   0.0750000   0.5000000   0.4750000), wk =   0.0198020
        k(   64) = (   0.1125000   0.5000000   0.4625000), wk =   0.0198020
        k(   65) = (   0.1500000   0.5000000   0.4500000), wk =   0.0198020
        k(   66) = (   0.1875000   0.5000000   0.4375000), wk =   0.0198020
        k(   67) = (   0.2250000   0.5000000   0.4250000), wk =   0.0198020
        k(   68) = (   0.2625000   0.5000000   0.4125000), wk =   0.0198020
        k(   69) = (   0.3000000   0.5000000   0.4000000), wk =   0.0198020
        k(   70) = (   0.3375000   0.5000000   0.3875000), wk =   0.0198020
        k(   71) = (   0.3750000   0.5000000   0.3750000), wk =   0.0198020
        k(   72) = (   0.4125000   0.5000000   0.3625000), wk =   0.0198020
        k(   73) = (   0.4500000   0.5000000   0.3500000), wk =   0.0198020
        k(   74) = (   0.4875000   0.5000000   0.3375000), wk =   0.0198020
        k(   75) = (   0.5250000   0.5000000   0.3250000), wk =   0.0198020
        k(   76) = (   0.5625000   0.5000000   0.3125000), wk =   0.0198020
        k(   77) = (   0.6000000   0.5000000   0.3000000), wk =   0.0198020
        k(   78) = (   0.6375000   0.5000000   0.2875000), wk =   0.0198020
        k(   79) = (   0.6750000   0.5000000   0.2750000), wk =   0.0198020
        k(   80) = (   0.7125000   0.5000000   0.2625000), wk =   0.0198020
        k(   81) = (   0.7500000   0.5000000   0.2500000), wk =   0.0198020
        k(   82) = (   0.7500000   0.4937500   0.2562500), wk =   0.0198020
        k(   83) = (   0.7500000   0.4875000   0.2625000), wk =   0.0198020
        k(   84) = (   0.7500000   0.4812500   0.2687500), wk =   0.0198020
        k(   85) = (   0.7500000   0.4750000   0.2750000), wk =   0.0198020
        k(   86) = (   0.7500000   0.4687500   0.2812500), wk =   0.0198020
        k(   87) = (   0.7500000   0.4625000   0.2875000), wk =   0.0198020
        k(   88) = (   0.7500000   0.4562500   0.2937500), wk =   0.0198020
        k(   89) = (   0.7500000   0.4500000   0.3000000), wk =   0.0198020
        k(   90) = (   0.7500000   0.4437500   0.3062500), wk =   0.0198020
        k(   91) = (   0.7500000   0.4375000   0.3125000), wk =   0.0198020
        k(   92) = (   0.7500000   0.4312500   0.3187500), wk =   0.0198020
        k(   93) = (   0.7500000   0.4250000   0.3250000), wk =   0.0198020
        k(   94) = (   0.7500000   0.4187500   0.3312500), wk =   0.0198020
        k(   95) = (   0.7500000   0.4125000   0.3375000), wk =   0.0198020
        k(   96) = (   0.7500000   0.4062500   0.3437500), wk =   0.0198020
        k(   97) = (   0.7500000   0.4000000   0.3500000), wk =   0.0198020
        k(   98) = (   0.7500000   0.3937500   0.3562500), wk =   0.0198020
        k(   99) = (   0.7500000   0.3875000   0.3625000), wk =   0.0198020
        k(  100) = (   0.7500000   0.3812500   0.3687500), wk =   0.0198020
        k(  101) = (   0.7500000   0.3750000   0.3750000), wk =   0.0198020

     Dense  grid:   197909 G-vectors     FFT dimensions: (  80,  80,  80)

     Smooth grid:    85735 G-vectors     FFT dimensions: (  60,  60,  60)

     Dynamical RAM for                 wfc:       1.37 MB

     Dynamical RAM for     wfc (w. buffer):     140.02 MB

     Dynamical RAM for           str. fact:       0.60 MB

     Dynamical RAM for           local pot:       0.00 MB

     Dynamical RAM for          nlocal pot:       3.53 MB

     Dynamical RAM for                qrad:       3.57 MB

     Dynamical RAM for          rho,v,vnew:       2.08 MB

     Dynamical RAM for           G-vectors:       1.20 MB

     Dynamical RAM for          h,s,v(r/c):       1.29 MB

     Dynamical RAM for          <psi|beta>:       0.28 MB

     Dynamical RAM for                 psi:       2.75 MB

     Dynamical RAM for                hpsi:       2.75 MB

     Dynamical RAM for                spsi:       2.75 MB

     Dynamical RAM for      wfcinit/wfcrot:       2.91 MB

     Dynamical RAM for           addusdens:      58.59 MB

     Estimated static dynamical RAM per process >     153.86 MB

     Estimated max dynamical RAM per process >     212.45 MB

     Estimated total dynamical RAM >       2.07 GB

     The potential is recalculated from file :
     ./work/pwscf.save/charge-density

     Starting wfcs are   72 randomized atomic wfcs +   12 random wfcs
     Checking if some PAW data can be deallocated... 
       PAW data deallocated on    2 nodes for type:  1
       PAW data deallocated on    8 nodes for type:  2

     Band Structure Calculation
     Davidson diagonalization with overlap

     Computing kpt #:     1  of   101
     total cpu time spent up to now is        3.1 secs

     Computing kpt #:     2  of   101
     total cpu time spent up to now is        4.6 secs

     Computing kpt #:     3  of   101
     total cpu time spent up to now is        6.0 secs

     Computing kpt #:     4  of   101
     total cpu time spent up to now is        7.3 secs

     Computing kpt #:     5  of   101
     total cpu time spent up to now is        8.7 secs

     Computing kpt #:     6  of   101
     total cpu time spent up to now is       10.2 secs

     Computing kpt #:     7  of   101
     total cpu time spent up to now is       11.5 secs

     Computing kpt #:     8  of   101
     total cpu time spent up to now is       12.9 secs

     Computing kpt #:     9  of   101
     total cpu time spent up to now is       14.3 secs

     Computing kpt #:    10  of   101
     total cpu time spent up to now is       15.6 secs

     Computing kpt #:    11  of   101
     total cpu time spent up to now is       17.1 secs

     Computing kpt #:    12  of   101
     total cpu time spent up to now is       18.9 secs

     Computing kpt #:    13  of   101
     total cpu time spent up to now is       20.4 secs

     Computing kpt #:    14  of   101
     total cpu time spent up to now is       21.9 secs

     Computing kpt #:    15  of   101
     total cpu time spent up to now is       23.4 secs

     Computing kpt #:    16  of   101
     total cpu time spent up to now is       24.8 secs

     Computing kpt #:    17  of   101
     total cpu time spent up to now is       26.2 secs

     Computing kpt #:    18  of   101
     total cpu time spent up to now is       27.6 secs

     Computing kpt #:    19  of   101
     total cpu time spent up to now is       29.0 secs

     Computing kpt #:    20  of   101
     total cpu time spent up to now is       30.4 secs

     Computing kpt #:    21  of   101
     total cpu time spent up to now is       31.8 secs

     Computing kpt #:    22  of   101
     total cpu time spent up to now is       33.2 secs

     Computing kpt #:    23  of   101
     total cpu time spent up to now is       34.6 secs

     Computing kpt #:    24  of   101
     total cpu time spent up to now is       36.0 secs

     Computing kpt #:    25  of   101
     total cpu time spent up to now is       37.4 secs

     Computing kpt #:    26  of   101
     total cpu time spent up to now is       39.0 secs

     Computing kpt #:    27  of   101
     total cpu time spent up to now is       40.4 secs

     Computing kpt #:    28  of   101
     total cpu time spent up to now is       42.2 secs

     Computing kpt #:    29  of   101
     total cpu time spent up to now is       43.7 secs

     Computing kpt #:    30  of   101
     total cpu time spent up to now is       45.1 secs

     Computing kpt #:    31  of   101
     total cpu time spent up to now is       46.6 secs

     Computing kpt #:    32  of   101
     total cpu time spent up to now is       48.0 secs

     Computing kpt #:    33  of   101
     total cpu time spent up to now is       49.5 secs

     Computing kpt #:    34  of   101
     total cpu time spent up to now is       50.9 secs

     Computing kpt #:    35  of   101
     total cpu time spent up to now is       52.4 secs

     Computing kpt #:    36  of   101
     total cpu time spent up to now is       53.9 secs

     Computing kpt #:    37  of   101
     total cpu time spent up to now is       55.6 secs

     Computing kpt #:    38  of   101
     total cpu time spent up to now is       57.4 secs

     Computing kpt #:    39  of   101
     total cpu time spent up to now is       59.7 secs

     Computing kpt #:    40  of   101
     c_bands:  1 eigenvalues not converged
     total cpu time spent up to now is       62.5 secs

     Computing kpt #:    41  of   101
     total cpu time spent up to now is       64.1 secs

     Computing kpt #:    42  of   101
     total cpu time spent up to now is       66.4 secs

     Computing kpt #:    43  of   101
     total cpu time spent up to now is       68.2 secs

     Computing kpt #:    44  of   101
     total cpu time spent up to now is       69.7 secs

     Computing kpt #:    45  of   101
     total cpu time spent up to now is       71.1 secs

     Computing kpt #:    46  of   101
     total cpu time spent up to now is       72.6 secs

     Computing kpt #:    47  of   101
     total cpu time spent up to now is       74.0 secs

     Computing kpt #:    48  of   101
     total cpu time spent up to now is       75.5 secs

     Computing kpt #:    49  of   101
     total cpu time spent up to now is       76.9 secs

     Computing kpt #:    50  of   101
     total cpu time spent up to now is       78.3 secs

     Computing kpt #:    51  of   101
     total cpu time spent up to now is       79.9 secs

     Computing kpt #:    52  of   101
     total cpu time spent up to now is       81.9 secs

     Computing kpt #:    53  of   101
     total cpu time spent up to now is       83.6 secs

     Computing kpt #:    54  of   101
     total cpu time spent up to now is       85.4 secs

     Computing kpt #:    55  of   101
     total cpu time spent up to now is       86.7 secs

     Computing kpt #:    56  of   101
     total cpu time spent up to now is       88.0 secs

     Computing kpt #:    57  of   101
     total cpu time spent up to now is       89.3 secs

     Computing kpt #:    58  of   101
     total cpu time spent up to now is       90.7 secs

     Computing kpt #:    59  of   101
     total cpu time spent up to now is       91.8 secs

     Computing kpt #:    60  of   101
     total cpu time spent up to now is       92.8 secs

     Computing kpt #:    61  of   101
     total cpu time spent up to now is       93.9 secs

     Computing kpt #:    62  of   101
     total cpu time spent up to now is       95.0 secs

     Computing kpt #:    63  of   101
     total cpu time spent up to now is       96.1 secs

     Computing kpt #:    64  of   101
     total cpu time spent up to now is       97.1 secs

     Computing kpt #:    65  of   101
     total cpu time spent up to now is       98.2 secs

     Computing kpt #:    66  of   101
     total cpu time spent up to now is       99.3 secs

     Computing kpt #:    67  of   101
     total cpu time spent up to now is      100.5 secs

     Computing kpt #:    68  of   101
     total cpu time spent up to now is      101.9 secs

     Computing kpt #:    69  of   101
     total cpu time spent up to now is      103.2 secs

     Computing kpt #:    70  of   101
     total cpu time spent up to now is      104.5 secs

     Computing kpt #:    71  of   101
     total cpu time spent up to now is      105.8 secs

     Computing kpt #:    72  of   101
     total cpu time spent up to now is      107.2 secs

     Computing kpt #:    73  of   101
     total cpu time spent up to now is      108.5 secs

     Computing kpt #:    74  of   101
     total cpu time spent up to now is      109.8 secs

     Computing kpt #:    75  of   101
     total cpu time spent up to now is      111.1 secs

     Computing kpt #:    76  of   101
     total cpu time spent up to now is      112.4 secs

     Computing kpt #:    77  of   101
     total cpu time spent up to now is      113.8 secs

     Computing kpt #:    78  of   101
     total cpu time spent up to now is      115.2 secs

     Computing kpt #:    79  of   101
     total cpu time spent up to now is      116.7 secs

     Computing kpt #:    80  of   101
     total cpu time spent up to now is      118.2 secs

     Computing kpt #:    81  of   101
     total cpu time spent up to now is      119.8 secs

     Computing kpt #:    82  of   101
     total cpu time spent up to now is      121.4 secs

     Computing kpt #:    83  of   101
     total cpu time spent up to now is      122.9 secs

     Computing kpt #:    84  of   101
     total cpu time spent up to now is      124.4 secs

     Computing kpt #:    85  of   101
     total cpu time spent up to now is      125.9 secs

     Computing kpt #:    86  of   101
     total cpu time spent up to now is      127.3 secs

     Computing kpt #:    87  of   101
     total cpu time spent up to now is      128.7 secs

     Computing kpt #:    88  of   101
     total cpu time spent up to now is      130.0 secs

     Computing kpt #:    89  of   101
     total cpu time spent up to now is      131.4 secs

     Computing kpt #:    90  of   101
     total cpu time spent up to now is      132.8 secs

     Computing kpt #:    91  of   101
     total cpu time spent up to now is      134.2 secs

     Computing kpt #:    92  of   101
     total cpu time spent up to now is      135.6 secs

     Computing kpt #:    93  of   101
     total cpu time spent up to now is      137.0 secs

     Computing kpt #:    94  of   101
     total cpu time spent up to now is      138.4 secs

     Computing kpt #:    95  of   101
     total cpu time spent up to now is      139.8 secs

     Computing kpt #:    96  of   101
     total cpu time spent up to now is      141.3 secs

     Computing kpt #:    97  of   101
     total cpu time spent up to now is      142.7 secs

     Computing kpt #:    98  of   101
     total cpu time spent up to now is      144.1 secs

     Computing kpt #:    99  of   101
     total cpu time spent up to now is      145.6 secs

     Computing kpt #:   100  of   101
     total cpu time spent up to now is      146.9 secs

     Computing kpt #:   101  of   101
     total cpu time spent up to now is      148.3 secs

     ethr =  7.86E-07,  avg # of iterations = 30.8

     total cpu time spent up to now is      148.3 secs

     End of band structure calculation

          k = 0.5000 0.2500 0.7500 ( 10730 PWs)   bands (ev):

   -73.0117 -73.0117 -73.0116 -73.0116 -39.5884 -39.5884 -39.5879 -39.5879
   -39.5866 -39.5866 -39.5861 -39.5861 -39.3329 -39.3329 -39.3328 -39.3328
    -3.0684  -3.0684  -2.3234  -2.3234   0.2961   0.2961   0.6190   0.6190
     5.3411   5.3411   6.2278   6.2278   6.4103   6.4103   7.7418   7.7418
     8.2587   8.2587   8.5457   8.5457   9.2338   9.2338   9.7358   9.7358
     9.9138   9.9138  10.4861  10.4861  11.6425  11.6425  11.7918  11.7918
    11.8607  11.8607  12.0559  12.0559  12.2964  12.2964  12.4395  12.4395
    14.0084  14.0084  14.4462  14.4462  14.6508  14.6508  15.0551  15.0551
    15.4963  15.4963  15.8744  15.8744  19.0091  19.0091  19.4468  19.4468
    19.7574  19.7574  20.7511  20.7511  21.0352  21.0352  21.6674  21.6674
    22.1228  22.1228  22.7207  22.7207

          k = 0.4750 0.2625 0.7125 ( 10720 PWs)   bands (ev):

   -73.0117 -73.0117 -73.0116 -73.0116 -39.5885 -39.5884 -39.5880 -39.5880
   -39.5865 -39.5864 -39.5861 -39.5860 -39.3329 -39.3329 -39.3328 -39.3328
    -3.0638  -2.9340  -2.3681  -2.3588   0.2488   0.2653   0.5410   0.5642
     5.3647   5.4274   6.1646   6.2241   6.4722   6.5232   7.7317   7.8126
     8.1247   8.2730   8.5172   8.5519   9.2923   9.3394   9.7736   9.8169
     9.9438   9.9475  10.4431  10.5730  11.6015  11.6298  11.7270  11.7790
    11.8258  11.8427  12.0316  12.0637  12.2542  12.2912  12.4109  12.4289
    13.9691  14.0586  14.4316  14.4547  14.5916  14.6093  15.0335  15.0611
    15.4963  15.5351  15.8569  15.8927  18.9465  19.0002  19.4061  19.5935
    19.7818  19.9466  20.7467  20.8145  20.8647  21.0042  21.5110  21.5519
    22.0574  22.0845  22.5753  22.6296

          k = 0.4500 0.2750 0.6750 ( 10716 PWs)   bands (ev):

   -73.0117 -73.0117 -73.0116 -73.0116 -39.5886 -39.5884 -39.5881 -39.5880
   -39.5864 -39.5863 -39.5860 -39.5860 -39.3329 -39.3329 -39.3328 -39.3327
    -3.0477  -2.8035  -2.4258  -2.3892   0.2088   0.2400   0.4581   0.5160
     5.3891   5.5357   6.0613   6.2075   6.5554   6.7053   7.6352   7.8354
     8.0695   8.2920   8.4745   8.5236   9.3794   9.4564   9.7881   9.8319
     9.9688  10.0712  10.3974  10.6336  11.5526  11.6076  11.7045  11.7548
    11.7837  11.8395  12.0004  12.0563  12.2112  12.2942  12.3724  12.4074
    13.9346  14.1020  14.3876  14.4130  14.5707  14.6330  15.0117  15.0667
    15.4949  15.5646  15.8495  15.9109  18.9200  19.0003  19.3357  19.7622
    19.8680  20.2218  20.5829  20.7027  20.9345  20.9960  21.2951  21.5304
    21.9960  22.0543  22.4011  22.5129

          k = 0.4250 0.2875 0.6375 ( 10703 PWs)   bands (ev):

   -73.0117 -73.0116 -73.0116 -73.0116 -39.5886 -39.5883 -39.5882 -39.5880
   -39.5863 -39.5862 -39.5860 -39.5859 -39.3329 -39.3328 -39.3327 -39.3327
    -3.0205  -2.6828  -2.4967  -2.4132   0.1785   0.2210   0.3822   0.4737
     5.4173   5.6573   5.9622   6.1918   6.6265   6.9151   7.4514   7.8418
     8.0815   8.3127   8.4264   8.4600   9.4797   9.5826   9.7531   9.8754
     9.9988  10.1905  10.3532  10.6610  11.5066  11.5976  11.6946  11.7240
    11.7521  11.8489  11.9577  12.0313  12.1740  12.3035  12.3306  12.3816
    13.9113  14.1393  14.3083  14.3511  14.6033  14.6755  14.9961  15.0613
    15.4984  15.5935  15.8481  15.9200  18.9254  19.0366  19.2609  19.9251
    19.9795  20.3995  20.5004  20.5965  20.9232  21.0549  21.1314  21.5896
    21.9064  21.9264  22.2531  22.4734

          k = 0.4000 0.3000 0.6000 ( 10708 PWs)   bands (ev):

   -73.0117 -73.0116 -73.0116 -73.0116 -39.5886 -39.5883 -39.5882 -39.5881
   -39.5862 -39.5862 -39.5860 -39.5859 -39.3329 -39.3328 -39.3328 -39.3327
    -2.9826  -2.5828  -2.5754  -2.4302   0.1580   0.2027   0.3316   0.4371
     5.4508   5.7458   5.9141   6.1797   6.6798   7.0807   7.2948   7.8495
     8.0778   8.3055   8.3925   8.4056   9.5690   9.7052   9.7184   9.9105
    10.0431  10.2258  10.3585  10.6569  11.4858  11.5846  11.6731  11.7015
    11.7487  11.8603  11.9077  11.9923  12.1549  12.2894  12.3169  12.3594
    13.9053  14.1727  14.2143  14.3005  14.6523  14.7093  14.9917  15.0407
    15.5178  15.6188  15.8501  15.9145  18.9465  19.1254  19.1888  19.9902
    20.0733  20.2847  20.4483  20.7462  20.9141  21.0281  21.2221  21.6378
    21.7794  21.8012  22.1433  22.4556

          k = 0.3750 0.3125 0.5625 ( 10718 PWs)   bands (ev):

   -73.0117 -73.0116 -73.0116 -73.0116 -39.5886 -39.5884 -39.5883 -39.5881
   -39.5862 -39.5862 -39.5860 -39.5859 -39.3329 -39.3328 -39.3328 -39.3328
    -2.9348  -2.6711  -2.4994  -2.4397   0.1476   0.1787   0.3226   0.4067
     5.4894   5.7029   6.0058   6.1722   6.7106   6.9578   7.4309   7.8521
     8.0444   8.2134   8.3996   8.4132   9.6177   9.6703   9.8397   9.9458
    10.0754  10.1687  10.4183  10.6282  11.4926  11.5641  11.6587  11.6927
    11.7525  11.8220  11.9078  11.9544  12.1602  12.2561  12.3264  12.3471
    13.9203  14.1189  14.2084  14.2700  14.6900  14.7287  14.9962  15.0159
    15.5516  15.6318  15.8547  15.8969  18.9719  19.1180  19.2621  19.8972
    20.0343  20.2746  20.5142  20.7467  20.8795  21.1418  21.3664  21.6292
    21.6818  21.7118  22.1399  22.3837

          k = 0.3500 0.3250 0.5250 ( 10718 PWs)   bands (ev):

   -73.0117 -73.0116 -73.0116 -73.0116 -39.5886 -39.5885 -39.5882 -39.5882
   -39.5862 -39.5862 -39.5859 -39.5859 -39.3329 -39.3329 -39.3328 -39.3328
    -2.8780  -2.7689  -2.4511  -2.4413   0.1488   0.1611   0.3473   0.3842
     5.5321   5.6189   6.1212   6.1691   6.7171   6.7851   7.6369   7.8154
     8.0323   8.1120   8.4244   8.4315   9.6146   9.6329   9.9545   9.9905
    10.0510  10.0936  10.4827  10.5770  11.5176  11.5471  11.6645  11.6871
    11.7498  11.7718  11.9334  11.9415  12.1864  12.2281  12.3354  12.3443
    13.9567  14.0371  14.2440  14.2619  14.7059  14.7259  15.0011  15.0074
    15.5863  15.6224  15.8616  15.8773  18.9937  19.0479  19.4306  19.6898
    20.0639  20.2051  20.6616  20.7803  20.8738  21.0295  21.4905  21.5207
    21.7135  21.7205  22.2413  22.3067

          k = 0.3250 0.3375 0.4875 ( 10713 PWs)   bands (ev):

   -73.0117 -73.0116 -73.0116 -73.0116 -39.5885 -39.5885 -39.5882 -39.5882
   -39.5862 -39.5862 -39.5859 -39.5859 -39.3329 -39.3329 -39.3328 -39.3328
    -2.8693  -2.8134  -2.4378  -2.4352   0.1594   0.1660   0.3726   0.3911
     5.5341   5.5770   6.1515   6.1719   6.6947   6.7186   7.7107   7.7946
     8.0516   8.0957   8.4409   8.4458   9.5803   9.5928   9.9726  10.0013
    10.0121  10.0651  10.5023  10.5535  11.5324  11.5477  11.6787  11.6911
    11.7479  11.7604  11.9550  11.9598  12.2051  12.2268  12.3435  12.3495
    13.9730  14.0130  14.2765  14.2826  14.6915  14.7040  15.0090  15.0158
    15.5862  15.6043  15.8659  15.8742  18.9846  19.0086  19.4899  19.6151
    20.1005  20.1840  20.7425  20.7800  20.8604  20.9105  21.4120  21.4414
    21.8353  21.8426  22.2850  22.2981

          k = 0.3000 0.3500 0.4500 ( 10707 PWs)   bands (ev):

   -73.0117 -73.0116 -73.0116 -73.0116 -39.5885 -39.5884 -39.5882 -39.5881
   -39.5862 -39.5862 -39.5860 -39.5859 -39.3329 -39.3328 -39.3328 -39.3327
    -2.9693  -2.7422  -2.4594  -2.4214   0.1710   0.2001   0.3776   0.4457
     5.4548   5.6203   6.0523   6.1856   6.6484   6.8024   7.5672   7.8473
     8.0567   8.2296   8.4363   8.4607   9.5099   9.5733   9.8469   9.9150
    10.0076  10.1449  10.4114  10.6232  11.5171  11.5799  11.6844  11.7165
    11.7466  11.8091  11.9641  12.0040  12.1868  12.2744  12.3400  12.3707
    13.9294  14.0862  14.3057  14.3275  14.6339  14.6869  15.0042  15.0443
    15.5311  15.5986  15.8565  15.9002  18.9386  19.0204  19.3345  19.8027
    20.0079  20.3679  20.5524  20.6615  20.9114  20.9991  21.2335  21.4990
    21.9149  21.9472  22.2641  22.3818

          k = 0.2750 0.3625 0.4125 ( 10703 PWs)   bands (ev):

   -73.0117 -73.0116 -73.0116 -73.0116 -39.5885 -39.5883 -39.5882 -39.5880
   -39.5863 -39.5863 -39.5859 -39.5859 -39.3329 -39.3328 -39.3328 -39.3327
    -3.0658  -2.6660  -2.5114  -2.4004   0.1923   0.2405   0.4098   0.5052
     5.3836   5.6475   5.9220   6.2008   6.5918   6.9530   7.4149   7.8280
     8.0968   8.3530   8.4329   8.4896   9.4317   9.5580   9.6899   9.8345
     9.9805  10.1888  10.3230  10.6836  11.5114  11.6123  11.7080  11.7385
    11.7647  11.8755  11.9642  12.0607  12.1738  12.3216  12.3334  12.3968
    13.9059  14.1724  14.3287  14.3869  14.5701  14.6532  14.9912  15.0771
    15.4725  15.5828  15.8396  15.9342  18.9175  19.0361  19.2374  19.9213
    19.9861  20.3306  20.4971  20.6047  20.9389  21.0175  21.1617  21.6465
    21.9122  21.9284  22.2898  22.5580

          k = 0.2500 0.3750 0.3750 ( 10699 PWs)   bands (ev):

   -73.0117 -73.0116 -73.0116 -73.0116 -39.5885 -39.5882 -39.5881 -39.5878
   -39.5864 -39.5864 -39.5860 -39.5859 -39.3329 -39.3328 -39.3328 -39.3327
    -3.1565  -2.5915  -2.5823  -2.3729   0.2209   0.2747   0.4747   0.5652
     5.3229   5.6088   5.8613   6.2179   6.5287   7.0968   7.2903   7.7843
     8.1134   8.3885   8.4278   8.5977   9.3559   9.5095   9.5661   9.7476
     9.9476  10.1608  10.2805  10.7297  11.5245  11.6427  11.7278  11.7727
    11.7997  11.9144  11.9842  12.1039  12.1783  12.3224  12.3647  12.4242
    13.8985  14.2615  14.3313  14.4386  14.5404  14.6074  14.9722  15.1087
    15.4240  15.5758  15.8139  15.9633  18.9215  19.0635  19.2003  19.8298
    20.1149  20.1628  20.4027  20.6571  20.8968  21.0731  21.3114  21.7286
    21.8478  21.9689  22.3288  22.7549

          k = 0.2250 0.3875 0.3375 ( 10708 PWs)   bands (ev):

   -73.0117 -73.0116 -73.0116 -73.0116 -39.5885 -39.5882 -39.5880 -39.5878
   -39.5865 -39.5865 -39.5860 -39.5859 -39.3329 -39.3328 -39.3328 -39.3327
    -3.2392  -2.6794  -2.5055  -2.3397   0.2546   0.3050   0.5600   0.6229
     5.2750   5.5034   5.8908   6.2317   6.4670   7.0613   7.3450   7.7319
     8.0793   8.4057   8.4283   8.7111   9.2841   9.3665   9.5592   9.6603
     9.9081  10.0887  10.2728  10.7550  11.5574  11.6716  11.7398  11.8106
    11.8487  11.9023  12.0425  12.1026  12.2172  12.3143  12.3948  12.4482
    13.8976  14.2846  14.3549  14.4336  14.5619  14.6208  14.9485  15.1377
    15.3952  15.5831  15.7854  15.9785  18.9422  19.1095  19.2139  19.7216
    19.9370  20.2617  20.3729  20.5152  20.9527  21.2829  21.4643  21.6948
    21.7858  22.1589  22.3602  22.8949

          k = 0.2000 0.4000 0.3000 ( 10713 PWs)   bands (ev):

   -73.0117 -73.0117 -73.0116 -73.0116 -39.5885 -39.5882 -39.5880 -39.5877
   -39.5867 -39.5866 -39.5861 -39.5860 -39.3330 -39.3328 -39.3328 -39.3327
    -3.3123  -2.7805  -2.4256  -2.3021   0.2914   0.3383   0.6423   0.6820
     5.2421   5.3974   5.9512   6.2321   6.4168   6.9376   7.4468   7.7018
     8.0235   8.3784   8.4744   8.7915   9.1849   9.2769   9.5363   9.6168
     9.8450  10.0360  10.2595  10.7515  11.6066  11.6902  11.7595  11.8351
    11.8868  11.9039  12.0746  12.0988  12.2547  12.3207  12.4101  12.4644
    13.8908  14.2559  14.3290  14.4913  14.5436  14.7434  14.9232  15.1645
    15.3887  15.5918  15.7692  15.9769  18.9655  19.1725  19.2605  19.6180
    19.7546  20.2063  20.4359  20.4937  21.0010  21.4753  21.5918  21.6562
    21.8311  22.3013  22.4912  22.9022

          k = 0.1750 0.4125 0.2625 ( 10728 PWs)   bands (ev):

   -73.0117 -73.0117 -73.0116 -73.0116 -39.5885 -39.5882 -39.5879 -39.5875
   -39.5869 -39.5867 -39.5861 -39.5861 -39.3330 -39.3329 -39.3328 -39.3328
    -3.3743  -2.8852  -2.3486  -2.2614   0.3304   0.3766   0.6961   0.7540
     5.2257   5.3154   6.0143   6.2088   6.3880   6.8227   7.4458   7.7099
     8.0208   8.3455   8.5018   8.8387   9.0813   9.2261   9.4804   9.6381
     9.7570  10.0146  10.2326  10.7121  11.6520  11.7065  11.7851  11.8322
    11.8980  11.9587  12.0549  12.1131  12.2832  12.3491  12.4119  12.4711
    13.8740  14.2181  14.3066  14.5029  14.5961  14.8617  14.9286  15.1905
    15.3954  15.5829  15.7846  15.9609  18.9763  19.2331  19.3091  19.4934
    19.6582  20.0833  20.5290  20.5874  21.0355  21.4950  21.6589  21.7630
    21.9953  22.3728  22.7262  22.8171

          k = 0.1500 0.4250 0.2250 ( 10725 PWs)   bands (ev):

   -73.0117 -73.0117 -73.0116 -73.0116 -39.5884 -39.5882 -39.5878 -39.5874
   -39.5870 -39.5868 -39.5862 -39.5861 -39.3330 -39.3329 -39.3328 -39.3327
    -3.4241  -2.9888  -2.2767  -2.2193   0.3715   0.4180   0.7302   0.8217
     5.2260   5.2643   6.0488   6.1729   6.3798   6.7319   7.3983   7.6687
     8.1282   8.3069   8.4882   8.8582   9.0209   9.1734   9.4383   9.6497
     9.6877  10.0129  10.1880  10.6334  11.6531  11.7460  11.7891  11.8493
    11.9167  12.0111  12.0402  12.1073  12.3128  12.3818  12.4106  12.4695
    13.8578  14.1703  14.3222  14.4783  14.6669  14.8777  15.0589  15.2177
    15.4003  15.5604  15.8287  15.9412  18.9664  19.2506  19.2782  19.3866
    19.6901  20.0303  20.6399  20.6870  21.0767  21.4284  21.7516  21.9030
    22.1856  22.4442  22.6839  23.0190

          k = 0.1250 0.4375 0.1875 ( 10726 PWs)   bands (ev):

   -73.0117 -73.0117 -73.0116 -73.0116 -39.5884 -39.5882 -39.5877 -39.5873
   -39.5870 -39.5868 -39.5862 -39.5862 -39.3330 -39.3329 -39.3328 -39.3327
    -3.4611  -3.0877  -2.2121  -2.1778   0.4146   0.4590   0.7545   0.8720
     5.2415   5.2461   6.0179   6.1361   6.3990   6.6709   7.3679   7.6063
     8.2532   8.2900   8.4281   8.8469   9.0211   9.1182   9.4105   9.5617
     9.7256  10.0183  10.1269  10.5173  11.6359  11.7238  11.8234  11.8865
    11.9337  12.0412  12.0601  12.1046  12.3303  12.4007  12.4299  12.4635
    13.8542  14.1301  14.3454  14.4449  14.7167  14.8945  15.1976  15.2484
    15.3959  15.5370  15.8798  15.9431  18.9394  19.1212  19.2547  19.3108
    19.8056  20.0791  20.7404  20.7989  21.1252  21.3707  21.8586  22.0401
    22.3326  22.5166  22.6384  23.0208

          k = 0.1000 0.4500 0.1500 ( 10724 PWs)   bands (ev):

   -73.0117 -73.0117 -73.0116 -73.0116 -39.5883 -39.5882 -39.5877 -39.5874
   -39.5870 -39.5869 -39.5863 -39.5862 -39.3330 -39.3330 -39.3327 -39.3327
    -3.4845  -3.1793  -2.1569  -2.1390   0.4579   0.4963   0.7736   0.9018
     5.2562   5.2732   5.9454   6.0655   6.4486   6.6348   7.3790   7.5659
     8.2005   8.3279   8.4434   8.8147   9.0571   9.0812   9.3890   9.4817
     9.7605  10.0142  10.0643  10.3739  11.6151  11.6789  11.8445  11.9041
    11.9802  12.0592  12.1027  12.1144  12.3320  12.4133  12.4563  12.4644
    13.8686  14.1012  14.3545  14.4073  14.7491  14.9209  15.2838  15.2978
    15.3948  15.5091  15.9268  15.9915  18.9033  18.9920  19.1855  19.2153
    19.9643  20.1912  20.8293  20.9272  21.1701  21.3339  21.9935  22.1626
    22.4196  22.5734  22.6421  22.9322

          k = 0.0750 0.4625 0.1125 ( 10712 PWs)   bands (ev):

   -73.0117 -73.0117 -73.0116 -73.0116 -39.5882 -39.5881 -39.5877 -39.5875
   -39.5868 -39.5868 -39.5863 -39.5862 -39.3330 -39.3329 -39.3327 -39.3327
    -3.4940  -3.2616  -2.1126  -2.1051   0.4982   0.5268   0.7914   0.9121
     5.2939   5.3154   5.8592   5.9640   6.5038   6.6138   7.4370   7.5661
     8.1283   8.2121   8.5637   8.7762   9.0581   9.1305   9.3687   9.4235
     9.7659   9.9811  10.0269  10.2282  11.5952  11.6336  11.8548  11.9025
    12.0409  12.0839  12.1285  12.1402  12.3320  12.4131  12.4684  12.4887
    13.9007  14.0822  14.3369  14.3721  14.7776  14.9385  15.3243  15.3389
    15.4127  15.4731  15.9977  16.0581  18.8581  18.9002  19.0649  19.1298
    20.1390  20.3109  20.9311  21.0502  21.2112  21.3212  22.1452  22.2701
    22.4482  22.4860  22.7345  22.9074

          k = 0.0500 0.4750 0.0750 ( 10712 PWs)   bands (ev):

   -73.0117 -73.0117 -73.0116 -73.0116 -39.5881 -39.5880 -39.5878 -39.5876
   -39.5867 -39.5867 -39.5864 -39.5863 -39.3330 -39.3330 -39.3327 -39.3326
    -3.4895  -3.3328  -2.0805  -2.0785   0.5315   0.5486   0.8116   0.9059
     5.3513   5.3661   5.7724   5.8519   6.5463   6.6018   7.5363   7.6115
     8.0361   8.0833   8.6287   8.7385   9.1031   9.1933   9.3505   9.3934
     9.7268   9.9105  10.0077  10.1326  11.5789  11.5966  11.8631  11.8973
    12.0898  12.1067  12.1462  12.1646  12.3384  12.4016  12.4861  12.5070
    13.9463  14.0707  14.3033  14.3349  14.8103  14.9375  15.3560  15.3644
    15.4244  15.4370  16.0832  16.1197  18.8071  18.8466  18.9648  19.0324
    20.3045  20.4034  21.0518  21.1460  21.2575  21.3254  22.2343  22.3531
    22.3653  22.4420  22.8441  22.9767

          k = 0.0250 0.4875 0.0375 ( 10721 PWs)   bands (ev):

   -73.0117 -73.0117 -73.0116 -73.0116 -39.5881 -39.5880 -39.5878 -39.5878
   -39.5867 -39.5866 -39.5864 -39.5864 -39.3330 -39.3330 -39.3327 -39.3327
    -3.4708  -3.3920  -2.0615  -2.0612   0.5539   0.5610   0.8358   0.8876
     5.4141   5.4182   5.7015   5.7481   6.5723   6.5942   7.6641   7.6956
     7.9245   7.9471   8.6540   8.7032   9.1807   9.2347   9.3564   9.3836
     9.6790   9.7806  10.0284  10.0902  11.5682  11.5728  11.8719  11.8901
    12.1188  12.1223  12.1625  12.1761  12.3518  12.3861  12.5023  12.5151
    13.9967  14.0603  14.2759  14.2948  14.8477  14.9182  15.3768  15.3918
    15.4099  15.4198  16.1510  16.1634  18.7795  18.8017  18.9131  18.9476
    20.4283  20.4577  21.1680  21.2027  21.3023  21.3301  22.1663  22.2339
    22.4765  22.5025  22.9666  23.0452

          k = 0.0000 0.5000 0.0000 ( 10676 PWs)   bands (ev):

   -73.0117 -73.0117 -73.0115 -73.0115 -39.5879 -39.5879 -39.5875 -39.5875
   -39.5867 -39.5867 -39.5863 -39.5863 -39.3329 -39.3329 -39.3326 -39.3326
    -3.4382  -3.4382  -2.0551  -2.0551   0.5634   0.5634   0.8625   0.8625
     5.4462   5.4463   5.6843   5.6843   6.5862   6.5862   7.8050   7.8050
     7.8056   7.8056   8.6744   8.6744   9.2311   9.2311   9.3801   9.3801
     9.6842   9.6842  10.0589  10.0589  11.5647  11.5647  11.8814  11.8814
    12.1280  12.1280  12.1743  12.1743  12.3690  12.3690  12.5130  12.5130
    14.0382  14.0382  14.2705  14.2705  14.8860  14.8860  15.3954  15.3954
    15.4064  15.4064  16.1779  16.1779  18.7779  18.7779  18.9057  18.9057
    20.4752  20.4752  21.2229  21.2229  21.3239  21.3239  22.1519  22.1519
    22.5324  22.5324  23.0505  23.0505

          k = 0.0000 0.4750 0.0000 ( 10716 PWs)   bands (ev):

   -73.0117 -73.0117 -73.0116 -73.0116 -39.5880 -39.5879 -39.5878 -39.5877
   -39.5867 -39.5866 -39.5865 -39.5864 -39.3330 -39.3329 -39.3327 -39.3326
    -3.5160  -3.3582  -2.0563  -2.0554   0.5561   0.5685   0.8105   0.9174
     5.4460   5.4536   5.6355   5.7405   6.5655   6.6056   7.7611   7.8005
     7.8126   7.8523   8.6193   8.7167   9.1777   9.2832   9.3334   9.3824
     9.6096   9.8084   9.9872  10.1098  11.5667  11.5670  11.8638  11.9010
    12.1250  12.1269  12.1565  12.1864  12.3330  12.4026  12.4967  12.5239
    13.9813  14.1100  14.2438  14.2826  14.8102  14.9543  15.3823  15.3843
    15.4265  15.4311  16.1717  16.1882  18.7649  18.7986  18.8917  18.9469
    20.4595  20.4623  21.2272  21.2463  21.3102  21.3459  22.0671  22.2145
    22.5217  22.5492  22.9676  23.1338

          k = 0.0000 0.4500 0.0000 ( 10724 PWs)   bands (ev):

   -73.0117 -73.0117 -73.0116 -73.0116 -39.5881 -39.5880 -39.5879 -39.5877
   -39.5867 -39.5866 -39.5865 -39.5864 -39.3331 -39.3329 -39.3327 -39.3326
    -3.5915  -3.2765  -2.0588  -2.0572   0.5471   0.5714   0.7614   0.9749
     5.4531   5.4679   5.5944   5.8035   6.5436   6.6238   7.7194   7.7994
     7.8229   7.9004   8.5494   8.7487   9.1229   9.2369   9.3341   9.3663
     9.5933   9.8994   9.9526  10.1359  11.5696  11.5778  11.8480  11.9229
    12.1135  12.1216  12.1384  12.1924  12.2967  12.4321  12.4760  12.5288
    13.9387  14.1972  14.2044  14.2794  14.7321  15.0108  15.3613  15.3975
    15.4442  15.4815  16.1689  16.2027  18.7681  18.8148  18.9162  19.0078
    20.4186  20.4250  21.2564  21.2625  21.3375  21.3731  21.9679  22.2494
    22.5128  22.5748  22.8916  23.2086

          k = 0.0000 0.4250 0.0000 ( 10724 PWs)   bands (ev):

   -73.0118 -73.0116 -73.0116 -73.0116 -39.5882 -39.5881 -39.5880 -39.5877
   -39.5867 -39.5865 -39.5864 -39.5864 -39.3331 -39.3329 -39.3328 -39.3326
    -3.6642  -3.1933  -2.0626  -2.0603   0.5364   0.5718   0.7155   1.0348
     5.4677   5.4886   5.5617   5.8723   6.5208   6.6410   7.6810   7.8014
     7.8352   7.9490   8.4633   8.7723   9.0669   9.1226   9.3439   9.3840
     9.6064   9.7997  10.1010  10.1346  11.5705  11.5996  11.8333  11.9467
    12.0861  12.1103  12.1288  12.1930  12.2629  12.4518  12.4568  12.5275
    13.9091  14.1550  14.2627  14.2991  14.6549  15.0554  15.3391  15.4400
    15.4597  15.5393  16.1683  16.2213  18.7912  18.8304  18.9742  19.0856
    20.3603  20.3713  21.2526  21.2966  21.4080  21.4178  21.8609  22.2587
    22.5027  22.6055  22.8277  23.2617

          k = 0.0000 0.4000 0.0000 ( 10724 PWs)   bands (ev):

   -73.0118 -73.0116 -73.0116 -73.0116 -39.5882 -39.5881 -39.5880 -39.5876
   -39.5867 -39.5865 -39.5864 -39.5863 -39.3331 -39.3329 -39.3328 -39.3327
    -3.7339  -3.1093  -2.0675  -2.0647   0.5245   0.5696   0.6727   1.0967
     5.4895   5.5152   5.5375   5.9460   6.4976   6.6579   7.6464   7.8062
     7.8484   7.9970   8.3614   8.7895   9.0099   9.0102   9.3195   9.4331
     9.6305   9.6917  10.1057  10.2457  11.5678  11.6330  11.8193  11.9713
    12.0489  12.0913  12.1227  12.1894  12.2344  12.4250  12.4763  12.5197
    13.8908  14.0987  14.2357  14.4150  14.5803  15.0933  15.3200  15.4737
    15.5014  15.5988  16.1686  16.2433  18.8365  18.8559  19.0538  19.1783
    20.2920  20.3086  21.2398  21.3322  21.4543  21.5214  21.7514  22.2494
    22.4902  22.6337  22.7807  23.2745

          k = 0.0000 0.3750 0.0000 ( 10708 PWs)   bands (ev):

   -73.0118 -73.0116 -73.0116 -73.0116 -39.5882 -39.5881 -39.5880 -39.5875
   -39.5866 -39.5864 -39.5864 -39.5863 -39.3331 -39.3328 -39.3328 -39.3326
    -3.8004  -3.0247  -2.0736  -2.0703   0.5117   0.5647   0.6330   1.1602
     5.5184   5.5221   5.5470   6.0236   6.4746   6.6752   7.6164   7.8133
     7.8611   8.0411   8.2477   8.8018   8.9060   8.9526   9.2947   9.4815
     9.5784   9.6592  10.0513  10.3808  11.5609  11.6766  11.8051  11.9961
    12.0074  12.0642  12.1171  12.1803  12.2146  12.3969  12.4906  12.5056
    13.8820  14.0379  14.2029  14.5090  14.5432  15.1299  15.3062  15.4872
    15.5719  15.6554  16.1683  16.2679  18.8944  18.9055  19.1501  19.2845
    20.2191  20.2418  21.2285  21.3566  21.5092  21.6386  21.6437  22.2286
    22.4749  22.6533  22.7545  23.2301

          k = 0.0000 0.3500 0.0000 ( 10720 PWs)   bands (ev):

   -73.0118 -73.0116 -73.0116 -73.0116 -39.5884 -39.5882 -39.5881 -39.5874
   -39.5866 -39.5865 -39.5864 -39.5862 -39.3331 -39.3328 -39.3328 -39.3326
    -3.8635  -2.9401  -2.0805  -2.0769   0.4981   0.5572   0.5965   1.2248
     5.5153   5.5538   5.5831   6.1037   6.4525   6.6938   7.5915   7.8220
     7.8715   8.0604   8.1449   8.8107   8.8115   8.8957   9.2703   9.4621
     9.5293   9.6902   9.9751  10.5010  11.5498  11.7272  11.7904  11.9648
    12.0200  12.0301  12.1112  12.1646  12.2053  12.3687  12.4853  12.5002
    13.8811  13.9744  14.1684  14.4417  14.6819  15.1685  15.3000  15.5009
    15.6439  15.7064  16.1664  16.2941  18.9455  18.9985  19.2612  19.4026
    20.1447  20.1740  21.2197  21.3708  21.5415  21.5640  21.7646  22.2009
    22.4570  22.6616  22.7515  23.1219

          k = 0.0000 0.3250 0.0000 ( 10736 PWs)   bands (ev):

   -73.0118 -73.0116 -73.0116 -73.0116 -39.5885 -39.5882 -39.5882 -39.5873
   -39.5866 -39.5865 -39.5864 -39.5862 -39.3331 -39.3329 -39.3328 -39.3327
    -3.9230  -2.8562  -2.0881  -2.0843   0.4842   0.5471   0.5630   1.2900
     5.5173   5.5952   5.6225   6.1848   6.4324   6.7147   7.5725   7.8315
     7.8778   7.9661   8.1431   8.7276   8.8176   8.8403   9.2469   9.3447
     9.5763   9.7224   9.8819  10.6003  11.5353  11.7695  11.7864  11.9252
    11.9905  12.0424  12.1052  12.1470  12.2019  12.3413  12.4597  12.5058
    13.8865  13.9092  14.1356  14.3787  14.8290  15.2101  15.3037  15.5158
    15.7126  15.7501  16.1617  16.3209  19.0072  19.1152  19.3862  19.5314
    20.0708  20.1068  21.2140  21.3768  21.4484  21.6124  21.8953  22.1692
    22.4365  22.6584  22.7673  22.9729

          k = 0.0000 0.3000 0.0000 ( 10723 PWs)   bands (ev):

   -73.0118 -73.0116 -73.0116 -73.0116 -39.5886 -39.5883 -39.5882 -39.5872
   -39.5865 -39.5865 -39.5863 -39.5862 -39.3331 -39.3329 -39.3328 -39.3326
    -3.9788  -2.7734  -2.0962  -2.0925   0.4702   0.5326   0.5347   1.3551
     5.5277   5.6415   5.6642   6.2651   6.4153   6.7393   7.5601   7.8341
     7.8408   7.8780   8.1648   8.6574   8.7873   8.8238   9.2248   9.2280
     9.6207   9.7553   9.7780  10.6729  11.5185  11.7537  11.8397  11.8935
    11.9460  12.0630  12.0989  12.1316  12.2009  12.3158  12.4299  12.5083
    13.8428  13.8967  14.1067  14.3207  14.9823  15.2547  15.3190  15.5323
    15.7752  15.7859  16.1538  16.3476  19.0768  19.2545  19.5237  19.6694
    19.9987  20.0414  21.2114  21.3684  21.3758  21.6521  22.0247  22.1350
    22.4135  22.6442  22.7618  22.7929

          k = 0.0000 0.2750 0.0000 ( 10727 PWs)   bands (ev):

   -73.0119 -73.0116 -73.0116 -73.0116 -39.5885 -39.5884 -39.5884 -39.5872
   -39.5865 -39.5864 -39.5863 -39.5862 -39.3332 -39.3328 -39.3328 -39.3327
    -4.0305  -2.6925  -2.1047  -2.1010   0.4563   0.5050   0.5201   1.4195
     5.5463   5.6913   5.7068   6.3427   6.4026   6.7688   7.5552   7.6994
     7.8489   7.8705   8.1708   8.6070   8.7368   8.8305   9.1144   9.2041
     9.6303   9.6997   9.7885  10.7136  11.5007  11.7324  11.8741  11.8941
    11.8971  12.0814  12.0926  12.1202  12.2009  12.2928  12.3970  12.5081
    13.7751  13.9104  14.0830  14.2683  15.1383  15.3021  15.3479  15.5509
    15.8140  15.8300  16.1423  16.3734  19.1509  19.4144  19.6720  19.8154
    19.9293  19.9782  21.2119  21.3057  21.3692  21.6835  22.0996  22.1357
    22.3876  22.6142  22.6202  22.6657

          k = 0.0000 0.2500 0.0000 ( 10699 PWs)   bands (ev):

   -73.0119 -73.0116 -73.0115 -73.0115 -39.5885 -39.5883 -39.5883 -39.5871
   -39.5865 -39.5864 -39.5862 -39.5861 -39.3331 -39.3328 -39.3327 -39.3326
    -4.0782  -2.6143  -2.1132  -2.1098   0.4428   0.4802   0.5037   1.4824
     5.5726   5.7426   5.7490   6.3962   6.4156   6.8045   7.5583   7.5667
     7.8544   7.8548   8.1519   8.5824   8.6865   8.8391   9.0074   9.1849
     9.5268   9.7292   9.8218  10.7198  11.4833  11.7079  11.8445  11.8696
    11.9456  12.0862  12.0977  12.1133  12.2014  12.2725  12.3630  12.5063
    13.7062  13.9265  14.0649  14.2222  15.2877  15.3519  15.3977  15.5716
    15.8354  15.8760  16.1272  16.3974  19.2257  19.5923  19.8288  19.8632
    19.9174  19.9680  21.2154  21.2649  21.3583  21.7082  22.0635  22.1571
    22.3584  22.5162  22.5475  22.5872

          k = 0.0000 0.2250 0.0000 ( 10743 PWs)   bands (ev):

   -73.0119 -73.0116 -73.0116 -73.0116 -39.5887 -39.5885 -39.5885 -39.5872
   -39.5866 -39.5864 -39.5862 -39.5862 -39.3332 -39.3329 -39.3328 -39.3327
    -4.1218  -2.5394  -2.1215  -2.1185   0.4299   0.4581   0.4859   1.5430
     5.6059   5.7894   5.7930   6.3980   6.4820   6.8477   7.4384   7.5698
     7.8299   7.8571   8.1084   8.5827   8.6304   8.8506   8.9138   9.1674
     9.4061   9.7739   9.8548  10.6929  11.4674  11.6798  11.7892  11.8793
    11.9924  12.0799  12.1108  12.1114  12.2020  12.2550  12.3293  12.5030
    13.6365  13.9438  14.0522  14.1823  15.3945  15.4035  15.5015  15.5943
    15.8510  15.9127  16.1087  16.4192  19.2968  19.7852  19.8010  19.8591
    19.9912  20.1258  21.2216  21.2511  21.3452  21.7270  22.0184  22.0274
    22.3248  22.4340  22.5457  22.5750

          k = 0.0000 0.2000 0.0000 ( 10751 PWs)   bands (ev):

   -73.0119 -73.0116 -73.0116 -73.0116 -39.5887 -39.5885 -39.5885 -39.5871
   -39.5867 -39.5864 -39.5862 -39.5862 -39.3333 -39.3329 -39.3328 -39.3327
    -4.1610  -2.4688  -2.1296  -2.1270   0.4178   0.4387   0.4674   1.6004
     5.6456   5.8269   5.8395   6.4103   6.5402   6.8994   7.3158   7.5892
     7.7982   7.8545   8.0485   8.5591   8.6001   8.8428   8.8662   9.1516
     9.2860   9.8195   9.8873  10.6381  11.4541  11.6484  11.7325  11.8997
    12.0340  12.0738  12.1121  12.1230  12.2029  12.2405  12.2976  12.4990
    13.5668  13.9616  14.0442  14.1490  15.4564  15.4626  15.6189  15.6511
    15.8619  15.9401  16.0871  16.4383  19.3601  19.7433  19.8032  19.9898
    20.1564  20.2876  21.2300  21.2683  21.3316  21.7400  21.8199  21.9915
    22.2859  22.3309  22.4963  22.6941

          k = 0.0000 0.1750 0.0000 ( 10751 PWs)   bands (ev):

   -73.0119 -73.0116 -73.0116 -73.0116 -39.5887 -39.5886 -39.5885 -39.5871
   -39.5867 -39.5864 -39.5862 -39.5861 -39.3333 -39.3329 -39.3328 -39.3327
    -4.1958  -2.4035  -2.1372  -2.1351   0.4067   0.4217   0.4487   1.6539
     5.6904   5.8605   5.8793   6.4348   6.5894   6.9603   7.2002   7.6156
     7.7617   7.8459   7.9812   8.4676   8.6259   8.7980   8.8870   9.1376
     9.1712   9.8641   9.9190  10.5623  11.4440  11.6141  11.6761  11.9261
    12.0681  12.0698  12.1163  12.1325  12.2039  12.2291  12.2693  12.4949
    13.4983  13.9791  14.0403  14.1216  15.5102  15.5268  15.6452  15.8068
    15.8693  15.9583  16.0629  16.4544  19.4121  19.6907  19.7497  20.2022
    20.3217  20.4520  21.2397  21.3185  21.3193  21.6152  21.7458  21.9558
    22.2402  22.2418  22.4393  22.8236

          k = 0.0000 0.1500 0.0000 ( 10743 PWs)   bands (ev):

   -73.0119 -73.0116 -73.0116 -73.0116 -39.5888 -39.5886 -39.5886 -39.5870
   -39.5867 -39.5863 -39.5861 -39.5861 -39.3333 -39.3329 -39.3328 -39.3327
    -4.2261  -2.3442  -2.1442  -2.1425   0.3968   0.4072   0.4304   1.7025
     5.7392   5.8895   5.9105   6.4720   6.6294   7.0308   7.0926   7.6468
     7.7230   7.8301   7.9132   8.3603   8.6545   8.7737   8.9134   9.0656
     9.1254   9.9068   9.9492  10.4729  11.4373  11.5783  11.6217  11.9541
    12.0628  12.0996  12.1223  12.1398  12.2048  12.2205  12.2454  12.4907
    13.4327  13.9957  14.0392  14.0996  15.5642  15.5912  15.6728  15.8741
    15.9583  15.9675  16.0367  16.4674  19.4511  19.6436  19.6986  20.4180
    20.4858  20.6176  21.2484  21.3095  21.3996  21.4215  21.7424  21.9201
    22.1700  22.1865  22.3752  22.9504

          k = 0.0000 0.1250 0.0000 ( 10771 PWs)   bands (ev):

   -73.0119 -73.0116 -73.0116 -73.0116 -39.5888 -39.5887 -39.5887 -39.5870
   -39.5868 -39.5863 -39.5863 -39.5862 -39.3334 -39.3329 -39.3328 -39.3328
    -4.2519  -2.2919  -2.1503  -2.1491   0.3881   0.3950   0.4132   1.7454
     5.7903   5.9137   5.9330   6.5198   6.6606   6.9940   7.1106   7.6801
     7.6849   7.8069   7.8491   8.2438   8.6824   8.7618   8.9455   8.9724
     9.1150   9.9464   9.9772  10.3769  11.4337  11.5424  11.5708  11.9806
    12.0580  12.1231  12.1293  12.1450  12.2057  12.2146  12.2267  12.4869
    13.3720  14.0106  14.0398  14.0823  15.6176  15.6538  15.7014  15.8771
    15.9680  16.0089  16.1005  16.4771  19.4774  19.6027  19.6501  20.6317
    20.6484  20.7830  21.2168  21.2854  21.3029  21.5040  21.7283  21.8832
    22.1176  22.1242  22.3055  23.0683

          k = 0.0000 0.1000 0.0000 ( 10779 PWs)   bands (ev):

   -73.0120 -73.0116 -73.0116 -73.0116 -39.5889 -39.5888 -39.5887 -39.5870
   -39.5869 -39.5863 -39.5863 -39.5862 -39.3334 -39.3329 -39.3328 -39.3328
    -4.2731  -2.2476  -2.1555  -2.1547   0.3809   0.3851   0.3980   1.7818
     5.8412   5.9331   5.9479   6.5739   6.6841   6.9061   7.1992   7.6502
     7.7123   7.7773   7.7922   8.1227   8.7075   8.7568   8.8946   8.9822
     9.1065   9.9817  10.0022  10.2811  11.4326  11.5085  11.5257  12.0036
    12.0540  12.1363  12.1396  12.1484  12.2066  12.2110  12.2140  12.4835
    13.3183  14.0236  14.0418  14.0692  15.6698  15.7114  15.7305  15.8788
    15.9604  15.9801  16.2287  16.4838  19.4931  19.5683  19.6052  20.8093
    20.8363  20.9463  21.0749  21.2825  21.2998  21.6172  21.7047  21.8426
    22.0562  22.0841  22.2332  23.1729

          k = 0.0000 0.0750 0.0000 ( 10779 PWs)   bands (ev):

   -73.0120 -73.0116 -73.0116 -73.0116 -39.5889 -39.5888 -39.5887 -39.5870
   -39.5869 -39.5863 -39.5862 -39.5862 -39.3334 -39.3329 -39.3328 -39.3328
    -4.2896  -2.2122  -2.1597  -2.1592   0.3752   0.3775   0.3853   1.8109
     5.8888   5.9477   5.9572   6.6283   6.7008   6.8310   7.2957   7.6208
     7.7406   7.7441   7.7452   8.0000   8.7282   8.7554   8.8337   9.0207
     9.0998  10.0114  10.0233  10.1925  11.4331  11.4789  11.4881  12.0222
    12.0508  12.1424  12.1487  12.1503  12.2074  12.2078  12.2093  12.4808
    13.2737  14.0341  14.0441  14.0596  15.7198  15.7599  15.7606  15.8797
    15.9454  15.9508  16.3373  16.4880  19.5010  19.5411  19.5655  20.9494
    20.9670  21.0234  21.1032  21.2908  21.2997  21.6765  21.7102  21.7946
    21.9975  22.0656  22.1637  23.2597

          k = 0.0000 0.0500 0.0000 ( 10779 PWs)   bands (ev):

   -73.0120 -73.0116 -73.0116 -73.0116 -39.5889 -39.5888 -39.5887 -39.5870
   -39.5869 -39.5862 -39.5862 -39.5861 -39.3334 -39.3329 -39.3329 -39.3328
    -4.3014  -2.1863  -2.1627  -2.1625   0.3711   0.3721   0.3757   1.8322
     5.9289   5.9579   5.9625   6.6758   6.7120   6.7720   7.3986   7.5987
     7.7101   7.7127   7.7626   7.8781   8.7436   8.7556   8.7905   9.0561
     9.0951  10.0339  10.0393  10.1193  11.4344  11.4558  11.4596  12.0356
    12.0484  12.1475  12.1513  12.1518  12.2070  12.2081  12.2087  12.4788
    13.2401  14.0418  14.0461  14.0531  15.7665  15.7889  15.7984  15.8801
    15.9218  15.9239  16.4207  16.4902  19.5043  19.5213  19.5336  20.8559
    21.1167  21.1864  21.2422  21.2982  21.3015  21.6502  21.7263  21.7347
    21.9918  22.0567  22.1052  23.3251

          k = 0.0000 0.0250 0.0000 ( 10803 PWs)   bands (ev):

   -73.0120 -73.0116 -73.0116 -73.0116 -39.5889 -39.5889 -39.5889 -39.5871
   -39.5870 -39.5862 -39.5862 -39.5862 -39.3335 -39.3329 -39.3329 -39.3329
    -4.3085  -2.1705  -2.1645  -2.1645   0.3686   0.3688   0.3698   1.8451
     5.9561   5.9639   5.9651   6.7086   6.7183   6.7338   7.5045   7.5849
     7.6884   7.6896   7.7607   7.7764   8.7531   8.7561   8.7648   9.0818
     9.0922  10.0480  10.0493  10.0702  11.4355  11.4410  11.4419  12.0437
    12.0469  12.1506  12.1516  12.1519  12.2080  12.2085  12.2086  12.4776
    13.2193  14.0464  14.0475  14.0492  15.8076  15.8157  15.8222  15.8803
    15.8950  15.8980  16.4733  16.4911  19.5052  19.5094  19.5127  20.7985
    21.2445  21.3030  21.3037  21.3171  21.3418  21.6317  21.6659  21.6671
    22.0316  22.0531  22.0660  23.3687

          k = 0.0000 0.0000 0.0000 ( 10827 PWs)   bands (ev):

   -73.0120 -73.0116 -73.0116 -73.0116 -39.5889 -39.5889 -39.5889 -39.5870
   -39.5870 -39.5864 -39.5864 -39.5864 -39.3335 -39.3330 -39.3330 -39.3330
    -4.3109  -2.1652  -2.1652  -2.1652   0.3677   0.3677   0.3677   1.8495
     5.9659   5.9659   5.9659   6.7204   6.7204   6.7204   7.5802   7.5802
     7.6811   7.6811   7.6811   7.7811   8.7563   8.7563   8.7563   9.0912
[...]
    15.4963  15.4963  15.8744  15.8744  19.0091  19.0091  19.4468  19.4468
    19.7574  19.7574  20.7511  20.7511  21.0352  21.0352  21.6674  21.6674
    22.1228  22.1228  22.7207  22.7207

          k = 0.7500 0.4937 0.2562 ( 10725 PWs)   bands (ev):

   -73.0117 -73.0117 -73.0116 -73.0116 -39.5884 -39.5884 -39.5879 -39.5879
   -39.5866 -39.5865 -39.5861 -39.5861 -39.3329 -39.3329 -39.3328 -39.3328
    -3.0769  -3.0431  -2.3287  -2.3279   0.2879   0.2920   0.6101   0.6141
     5.3379   5.3504   6.2139   6.2271   6.4195   6.4416   7.7339   7.7542
     8.2314   8.2692   8.5374   8.5494   9.2386   9.2519   9.7336   9.7562
     9.9060   9.9204  10.4711  10.5055  11.6381  11.6475  11.7808  11.7976
    11.8566  11.8582  12.0500  12.0583  12.2877  12.2957  12.4357  12.4402
    13.9990  14.0224  14.4416  14.4532  14.6426  14.6496  15.0493  15.0560
    15.4905  15.5028  15.8648  15.8746  19.0014  19.0198  19.4327  19.4695
    19.7455  19.7844  20.7199  20.7418  21.0224  21.0698  21.6777  21.6893
    22.0897  22.0938  22.7003  22.7221

          k = 0.7500 0.4875 0.2625 ( 10720 PWs)   bands (ev):

   -73.0117 -73.0117 -73.0116 -73.0116 -39.5884 -39.5884 -39.5879 -39.5879
   -39.5865 -39.5865 -39.5861 -39.5861 -39.3329 -39.3329 -39.3328 -39.3328
    -3.0849  -3.0177  -2.3346  -2.3323   0.2801   0.2882   0.6011   0.6096
     5.3350   5.3604   6.1974   6.2259   6.4292   6.4756   7.7252   7.7664
     8.2018   8.2799   8.5311   8.5531   9.2444   9.2696   9.7292   9.7753
     9.8984   9.9284  10.4565  10.5246  11.6336  11.6518  11.7701  11.8026
    11.8529  11.8564  12.0449  12.0603  12.2790  12.2950  12.4320  12.4405
    13.9901  14.0369  14.4365  14.4582  14.6359  14.6478  15.0435  15.0567
    15.4846  15.5094  15.8561  15.8758  18.9940  19.0307  19.4179  19.4942
    19.7346  19.8134  20.6887  20.7324  21.0100  21.1050  21.6852  21.7095
    22.0560  22.0669  22.6820  22.7175

          k = 0.7500 0.4812 0.2687 ( 10719 PWs)   bands (ev):

   -73.0117 -73.0117 -73.0116 -73.0116 -39.5884 -39.5883 -39.5880 -39.5879
   -39.5865 -39.5865 -39.5861 -39.5861 -39.3329 -39.3329 -39.3328 -39.3328
    -3.0926  -2.9923  -2.3414  -2.3365   0.2728   0.2847   0.5920   0.6052
     5.3323   5.3712   6.1792   6.2246   6.4389   6.5115   7.7154   7.7780
     8.1711   8.2907   8.5260   8.5566   9.2511   9.2865   9.7232   9.7923
     9.8920   9.9374  10.4424  10.5434  11.6290  11.6551  11.7602  11.8069
    11.8495  11.8554  12.0406  12.0618  12.2704  12.2941  12.4282  12.4406
    13.9816  14.0518  14.4309  14.4610  14.6309  14.6456  15.0375  15.0574
    15.4786  15.5161  15.8482  15.8779  18.9870  19.0417  19.4022  19.5207
    19.7251  19.8441  20.6576  20.7226  20.9984  21.1405  21.6890  21.7274
    22.0221  22.0432  22.6654  22.7052

          k = 0.7500 0.4750 0.2750 ( 10720 PWs)   bands (ev):

   -73.0117 -73.0117 -73.0116 -73.0116 -39.5885 -39.5884 -39.5880 -39.5879
   -39.5865 -39.5865 -39.5861 -39.5860 -39.3329 -39.3329 -39.3328 -39.3328
    -3.0998  -2.9669  -2.3491  -2.3406   0.2660   0.2815   0.5829   0.6011
     5.3300   5.3827   6.1599   6.2233   6.4486   6.5488   7.7043   7.7888
     8.1406   8.3015   8.5213   8.5599   9.2588   9.3028   9.7161   9.8056
     9.8886   9.9469  10.4289  10.5617  11.6240  11.6570  11.7514  11.8105
    11.8463  11.8550  12.0373  12.0627  12.2619  12.2933  12.4246  12.4403
    13.9735  14.0670  14.4249  14.4619  14.6273  14.6427  15.0315  15.0583
    15.4726  15.5228  15.8412  15.8811  18.9803  19.0526  19.3857  19.5489
    19.7174  19.8764  20.6269  20.7120  20.9877  21.1759  21.6885  21.7419
    21.9885  22.0238  22.6484  22.6863

          k = 0.7500 0.4687 0.2812 ( 10723 PWs)   bands (ev):

   -73.0117 -73.0117 -73.0116 -73.0116 -39.5885 -39.5884 -39.5879 -39.5879
   -39.5865 -39.5865 -39.5861 -39.5860 -39.3329 -39.3329 -39.3328 -39.3328
    -3.1066  -2.9416  -2.3577  -2.3444   0.2597   0.2786   0.5737   0.5972
     5.3279   5.3949   6.1396   6.2221   6.4581   6.5871   7.6915   7.7985
     8.1116   8.3123   8.5166   8.5631   9.2675   9.3182   9.7083   9.8126
     9.8904   9.9565  10.4159  10.5796  11.6185  11.6577  11.7441  11.8131
    11.8439  11.8550  12.0349  12.0628  12.2537  12.2925  12.4209  12.4397
    13.9658  14.0824  14.4184  14.4611  14.6249  14.6394  15.0253  15.0595
    15.4666  15.5293  15.8348  15.8851  18.9741  19.0634  19.3683  19.5788
    19.7119  19.9101  20.5967  20.7006  20.9783  21.2108  21.6837  21.7514
    21.9556  22.0099  22.6238  22.6686

          k = 0.7500 0.4625 0.2875 ( 10724 PWs)   bands (ev):

   -73.0117 -73.0117 -73.0116 -73.0116 -39.5885 -39.5884 -39.5880 -39.5879
   -39.5865 -39.5865 -39.5861 -39.5861 -39.3329 -39.3329 -39.3328 -39.3328
    -3.1130  -2.9163  -2.3671  -2.3480   0.2539   0.2760   0.5646   0.5936
     5.3261   5.4078   6.1187   6.2209   6.4672   6.6262   7.6765   7.8065
     8.0855   8.3231   8.5116   8.5660   9.2772   9.3327   9.7001   9.8125
     9.8984   9.9658  10.4036  10.5969  11.6124  11.6571  11.7385  11.8145
    11.8426  11.8550  12.0337  12.0621  12.2458  12.2918  12.4173  12.4388
    13.9585  14.0982  14.4115  14.4591  14.6230  14.6359  15.0192  15.0610
    15.4606  15.5357  15.8291  15.8900  18.9682  19.0738  19.3499  19.6101
    19.7091  19.9451  20.5671  20.6879  20.9703  21.2449  21.6746  21.7541
    21.9238  22.0028  22.5864  22.6596

          k = 0.7500 0.4562 0.2937 ( 10726 PWs)   bands (ev):

   -73.0117 -73.0117 -73.0116 -73.0116 -39.5885 -39.5884 -39.5880 -39.5879
   -39.5865 -39.5865 -39.5861 -39.5861 -39.3329 -39.3329 -39.3328 -39.3328
    -3.1190  -2.8911  -2.3774  -2.3513   0.2486   0.2738   0.5555   0.5902
     5.3246   5.4215   6.0974   6.2199   6.4759   6.6661   7.6590   7.8124
     8.0635   8.3337   8.5060   8.5688   9.2879   9.3462   9.6918   9.8070
     9.9108   9.9750  10.3919  10.6135  11.6055  11.6556  11.7342  11.8144
    11.8432  11.8548  12.0336  12.0604  12.2383  12.2913  12.4137  12.4377
    13.9516  14.1142  14.4041  14.4563  14.6207  14.6326  15.0131  15.0630
    15.4549  15.5419  15.8240  15.8954  18.9628  19.0838  19.3306  19.6421
    19.7096  19.9809  20.5382  20.6739  20.9637  21.2778  21.6616  21.7486
    21.8937  22.0033  22.5404  22.6576

          k = 0.7500 0.4500 0.3000 ( 10724 PWs)   bands (ev):

   -73.0117 -73.0117 -73.0116 -73.0116 -39.5885 -39.5883 -39.5880 -39.5879
   -39.5865 -39.5865 -39.5861 -39.5860 -39.3329 -39.3329 -39.3328 -39.3328
    -3.1245  -2.8661  -2.3886  -2.3545   0.2438   0.2719   0.5465   0.5870
     5.3232   5.4358   6.0757   6.2190   6.4841   6.7065   7.6383   7.8156
     8.0469   8.3441   8.4997   8.5714   9.2993   9.3586   9.6836   9.7985
     9.9248   9.9843  10.3810  10.6292  11.5980  11.6536  11.7311  11.8126
    11.8458  11.8541  12.0347  12.0578  12.2312  12.2910  12.4102  12.4364
    13.9451  14.1303  14.3962  14.4532  14.6173  14.6302  15.0073  15.0656
    15.4494  15.5477  15.8195  15.9013  18.9577  19.0934  19.3106  19.6731
    19.7152  20.0174  20.5103  20.6586  20.9585  21.3089  21.6448  21.7351
    21.8656  22.0112  22.4904  22.6603

          k = 0.7500 0.4437 0.3062 ( 10722 PWs)   bands (ev):

   -73.0117 -73.0117 -73.0116 -73.0116 -39.5885 -39.5883 -39.5881 -39.5879
   -39.5865 -39.5865 -39.5861 -39.5860 -39.3329 -39.3329 -39.3328 -39.3328
    -3.1296  -2.8412  -2.4007  -2.3574   0.2396   0.2704   0.5377   0.5840
     5.3221   5.4506   6.0539   6.2183   6.4918   6.7473   7.6141   7.8161
     8.0363   8.3542   8.4926   8.5738   9.3114   9.3700   9.6756   9.7887
     9.9384   9.9941  10.3707  10.6441  11.5899  11.6516  11.7288  11.8097
    11.8499  11.8530  12.0370  12.0541  12.2246  12.2910  12.4067  12.4350
    13.9389  14.1466  14.3879  14.4502  14.6124  14.6286  15.0017  15.0686
    15.4442  15.5532  15.8157  15.9076  18.9530  19.1024  19.2900  19.6970
    19.7318  20.0541  20.4836  20.6424  20.9545  21.3377  21.6236  21.7160
    21.8400  22.0250  22.4395  22.6669

          k = 0.7500 0.4375 0.3125 ( 10711 PWs)   bands (ev):

   -73.0117 -73.0117 -73.0116 -73.0116 -39.5885 -39.5883 -39.5881 -39.5879
   -39.5865 -39.5864 -39.5860 -39.5859 -39.3329 -39.3328 -39.3328 -39.3327
    -3.1343  -2.8165  -2.4137  -2.3600   0.2358   0.2693   0.5292   0.5812
     5.3212   5.4661   6.0321   6.2176   6.4988   6.7885   7.5863   7.8142
     8.0317   8.3639   8.4848   8.5760   9.3239   9.3804   9.6678   9.7785
     9.9498  10.0053  10.3610  10.6580  11.5815  11.6499  11.7271  11.8060
    11.8505  11.8557  12.0403  12.0496  12.2185  12.2915  12.4032  12.4335
    13.9331  14.1630  14.3790  14.4474  14.6066  14.6274  14.9965  15.0721
    15.4393  15.5581  15.8125  15.9141  18.9487  19.1108  19.2691  19.7111
    19.7620  20.0902  20.4584  20.6256  20.9514  21.3632  21.5965  21.6953
    21.8172  22.0427  22.3895  22.6766

          k = 0.7500 0.4312 0.3187 ( 10713 PWs)   bands (ev):

   -73.0117 -73.0117 -73.0116 -73.0116 -39.5885 -39.5883 -39.5881 -39.5879
   -39.5865 -39.5864 -39.5860 -39.5860 -39.3329 -39.3328 -39.3328 -39.3327
    -3.1385  -2.7920  -2.4275  -2.3624   0.2326   0.2686   0.5210   0.5787
     5.3206   5.4820   6.0103   6.2171   6.5052   6.8299   7.5550   7.8106
     8.0324   8.3731   8.4762   8.5782   9.3362   9.3900   9.6600   9.7687
     9.9581  10.0184  10.3520  10.6709  11.5730  11.6484  11.7258  11.8019
    11.8477  11.8619  12.0425  12.0461  12.2129  12.2923  12.3998  12.4319
    13.9276  14.1793  14.3697  14.4449  14.6000  14.6261  14.9917  15.0759
    15.4349  15.5626  15.8099  15.9207  18.9448  19.1184  19.2482  19.7226
    19.7979  20.1249  20.4351  20.6089  20.9487  21.3843  21.5619  21.6773
    21.7981  22.0623  22.3421  22.6884

          k = 0.7500 0.4250 0.3250 ( 10708 PWs)   bands (ev):

   -73.0117 -73.0117 -73.0116 -73.0116 -39.5885 -39.5883 -39.5881 -39.5879
   -39.5864 -39.5864 -39.5860 -39.5859 -39.3329 -39.3328 -39.3328 -39.3328
    -3.1423  -2.7678  -2.4421  -2.3646   0.2297   0.2683   0.5131   0.5763
     5.3201   5.4983   5.9887   6.2167   6.5109   6.8715   7.5206   7.8061
     8.0372   8.3817   8.4670   8.5803   9.3477   9.3995   9.6519   9.7598
     9.9632  10.0335  10.3434  10.6826  11.5646  11.6473  11.7248  11.7977
    11.8442  11.8686  12.0370  12.0504  12.2076  12.2937  12.3963  12.4304
    13.9226  14.1956  14.3601  14.4429  14.5931  14.6246  14.9874  15.0801
    15.4310  15.5665  15.8080  15.9271  18.9412  19.1251  19.2278  19.7348
    19.8358  20.1569  20.4143  20.5936  20.9463  21.3993  21.5196  21.6647
    21.7833  22.0813  22.2993  22.7019

          k = 0.7500 0.4187 0.3312 ( 10710 PWs)   bands (ev):

   -73.0117 -73.0117 -73.0116 -73.0116 -39.5885 -39.5883 -39.5881 -39.5879
   -39.5865 -39.5864 -39.5860 -39.5859 -39.3329 -39.3328 -39.3328 -39.3327
    -3.1456  -2.7439  -2.4576  -2.3665   0.2273   0.2683   0.5058   0.5742
     5.3198   5.5148   5.9676   6.2165   6.5159   6.9128   7.4837   7.8015
     8.0448   8.3897   8.4573   8.5824   9.3575   9.4095   9.6434   9.7524
     9.9655  10.0499  10.3352  10.6931  11.5567  11.6464  11.7240  11.7934
    11.8400  11.8757  12.0300  12.0563  12.2027  12.2956  12.3927  12.4289
    13.9179  14.2118  14.3502  14.4414  14.5859  14.6227  14.9836  15.0844
    15.4276  15.5698  15.8067  15.9334  18.9380  19.1304  19.2087  19.7482
    19.8745  20.1842  20.3966  20.5812  20.9437  21.4051  21.4726  21.6585
    21.7740  22.0960  22.2642  22.7161

          k = 0.7500 0.4125 0.3375 ( 10711 PWs)   bands (ev):

   -73.0117 -73.0117 -73.0116 -73.0116 -39.5885 -39.5882 -39.5881 -39.5879
   -39.5865 -39.5864 -39.5860 -39.5859 -39.3329 -39.3328 -39.3328 -39.3327
    -3.1485  -2.7203  -2.4738  -2.3682   0.2253   0.2687   0.4989   0.5722
     5.3197   5.5313   5.9471   6.2163   6.5201   6.9538   7.4450   7.7972
     8.0545   8.3970   8.4472   8.5845   9.3647   9.4210   9.6340   9.7467
     9.9656  10.0670  10.3272  10.7023  11.5493  11.6459  11.7236  11.7893
    11.8352  11.8828  12.0225  12.0628  12.1981  12.2980  12.3890  12.4275
    13.9137  14.2276  14.3401  14.4403  14.5786  14.6206  14.9803  15.0887
    15.4249  15.5724  15.8060  15.9393  18.9350  19.1330  19.1924  19.7624
    19.9135  20.2044  20.3828  20.5737  20.9406  21.3908  21.4327  21.6586
    21.7704  22.1003  22.2425  22.7302

          k = 0.7500 0.4062 0.3437 ( 10705 PWs)   bands (ev):

   -73.0117 -73.0117 -73.0116 -73.0116 -39.5885 -39.5882 -39.5881 -39.5879
   -39.5864 -39.5864 -39.5860 -39.5859 -39.3329 -39.3328 -39.3328 -39.3327
    -3.1510  -2.6970  -2.4908  -2.3696   0.2237   0.2693   0.4928   0.5705
     5.3198   5.5476   5.9275   6.2163   6.5235   6.9940   7.4054   7.7935
     8.0651   8.4034   8.4370   8.5866   9.3688   9.4343   9.6236   9.7431
     9.9642  10.0844  10.3193  10.7102  11.5427  11.6455  11.7235  11.7853
    11.8299  11.8899  12.0149  12.0697  12.1938  12.3009  12.3853  12.4264
    13.9099  14.2430  14.3301  14.4395  14.5714  14.6183  14.9776  15.0930
    15.4228  15.5744  15.8060  15.9448  18.9324  19.1304  19.1818  19.7770
    19.9524  20.2155  20.3737  20.5734  20.9367  21.3434  21.4147  21.6647
    21.7726  22.0890  22.2390  22.7430

          k = 0.7500 0.4000 0.3500 ( 10709 PWs)   bands (ev):

   -73.0117 -73.0116 -73.0116 -73.0116 -39.5885 -39.5883 -39.5881 -39.5879
   -39.5865 -39.5864 -39.5860 -39.5859 -39.3329 -39.3328 -39.3328 -39.3328
    -3.1530  -2.6742  -2.5086  -2.3708   0.2224   0.2702   0.4874   0.5690
     5.3201   5.5634   5.9093   6.2164   6.5262   7.0324   7.3662   7.7903
     8.0762   8.4088   8.4272   8.5887   9.3701   9.4492   9.6122   9.7414
     9.9617  10.1016  10.3113  10.7168  11.5370  11.6452  11.7237  11.7818
    11.8242  11.8966  12.0072  12.0769  12.1897  12.3043  12.3814  12.4254
    13.9066  14.2573  14.3208  14.4391  14.5644  14.6159  14.9754  15.0971
    15.4215  15.5758  15.8065  15.9498  18.9299  19.1210  19.1787  19.7913
    19.9905  20.2165  20.3693  20.5814  20.9317  21.2851  21.3996  21.6754
    21.7800  22.0659  22.2497  22.7537

          k = 0.7500 0.3937 0.3562 ( 10708 PWs)   bands (ev):

   -73.0117 -73.0116 -73.0116 -73.0116 -39.5885 -39.5882 -39.5881 -39.5879
   -39.5865 -39.5864 -39.5860 -39.5859 -39.3329 -39.3328 -39.3328 -39.3327
    -3.1545  -2.6518  -2.5270  -2.3717   0.2215   0.2712   0.4828   0.5677
     5.3206   5.5781   5.8928   6.2166   6.5280   7.0674   7.3294   7.7879
     8.0871   8.4110   8.4199   8.5910   9.3690   9.4650   9.6001   9.7414
     9.9585  10.1182  10.3033  10.7220  11.5323  11.6449  11.7243  11.7786
    11.8182  11.9027  12.0000  12.0841  12.1860  12.3082  12.3774  12.4247
    13.9037  14.2690  14.3135  14.4388  14.5576  14.6136  14.9737  15.1008
    15.4209  15.5766  15.8077  15.9542  18.9277  19.1073  19.1812  19.8045
    20.0274  20.2086  20.3695  20.5972  20.9252  21.2253  21.3812  21.6893
    21.7919  22.0382  22.2675  22.7609

          k = 0.7500 0.3875 0.3625 ( 10712 PWs)   bands (ev):

   -73.0117 -73.0116 -73.0116 -73.0116 -39.5885 -39.5883 -39.5882 -39.5879
   -39.5865 -39.5864 -39.5860 -39.5859 -39.3329 -39.3328 -39.3328 -39.3328
    -3.1556  -2.6299  -2.5460  -2.3723   0.2210   0.2724   0.4791   0.5666
     5.3212   5.5911   5.8787   6.2169   6.5291   7.0948   7.2994   7.7860
     8.0972   8.4048   8.4210   8.5932   9.3660   9.4812   9.5876   9.7427
     9.9548  10.1341  10.2953  10.7259  11.5286  11.6444  11.7252  11.7760
    11.8120  11.9079  11.9934  12.0911  12.1828  12.3125  12.3732  12.4243
    13.9014  14.2742  14.3123  14.4387  14.5513  14.6113  14.9726  15.1040
    15.4211  15.5769  15.8093  15.9580  18.9256  19.0922  19.1863  19.8158
    20.0626  20.1937  20.3746  20.6183  20.9171  21.1676  21.3598  21.7046
    21.8074  22.0108  22.2878  22.7637

          k = 0.7500 0.3812 0.3687 ( 10706 PWs)   bands (ev):

   -73.0117 -73.0116 -73.0116 -73.0116 -39.5885 -39.5882 -39.5882 -39.5878
   -39.5864 -39.5864 -39.5860 -39.5859 -39.3329 -39.3328 -39.3328 -39.3327
    -3.1563  -2.6087  -2.5656  -2.3727   0.2208   0.2736   0.4764   0.5658
     5.3220   5.6016   5.8679   6.2174   6.5293   7.1069   7.2840   7.7849
     8.1061   8.3964   8.4243   8.5955   9.3615   9.4968   9.5755   9.7449
     9.9511  10.1485  10.2875  10.7285  11.5260  11.6437  11.7264  11.7740
    11.8057  11.9120  11.9881  12.0978  12.1801  12.3173  12.3690  12.4241
    13.8997  14.2704  14.3196  14.4386  14.5455  14.6092  14.9721  15.1067
    15.4222  15.5765  15.8114  15.9610  18.9235  19.0774  19.1928  19.8244
    20.0946  20.1750  20.3856  20.6403  20.9071  21.1156  21.3363  21.7187
    21.8261  21.9867  22.3086  22.7617

          k = 0.7500 0.3750 0.3750 ( 10699 PWs)   bands (ev):

   -73.0117 -73.0116 -73.0116 -73.0116 -39.5885 -39.5882 -39.5881 -39.5878
   -39.5864 -39.5864 -39.5860 -39.5859 -39.3329 -39.3328 -39.3328 -39.3327
    -3.1565  -2.5915  -2.5823  -2.3729   0.2209   0.2747   0.4747   0.5652
     5.3229   5.6088   5.8613   6.2179   6.5287   7.0968   7.2903   7.7843
     8.1134   8.3885   8.4278   8.5977   9.3559   9.5095   9.5661   9.7476
     9.9476  10.1608  10.2805  10.7297  11.5245  11.6427  11.7278  11.7727
    11.7997  11.9144  11.9842  12.1039  12.1783  12.3224  12.3647  12.4242
    13.8985  14.2615  14.3313  14.4386  14.5404  14.6074  14.9722  15.1087
    15.4240  15.5758  15.8139  15.9633  18.9215  19.0635  19.2003  19.8298
    20.1149  20.1628  20.4027  20.6571  20.8968  21.0731  21.3114  21.7286
    21.8478  21.9689  22.3288  22.7549

     Writing all to output data dir ./work/pwscf.save/

     init_run     :      1.09s CPU      1.15s WALL (       1 calls)
     electrons    :    140.89s CPU    146.74s WALL (       1 calls)

     Called by init_run:
     wfcinit      :      0.00s CPU      0.00s WALL (       1 calls)
     wfcinit:atom :      0.08s CPU      0.10s WALL (     101 calls)
     wfcinit:wfcr :      6.96s CPU      7.45s WALL (     101 calls)
     potinit      :      0.33s CPU      0.36s WALL (       1 calls)
     hinit0       :      0.47s CPU      0.47s WALL (       1 calls)

     Called by electrons:
     c_bands      :    140.89s CPU    146.73s WALL (       1 calls)
     v_of_rho     :      0.00s CPU      0.00s WALL (       1 calls)
     v_h          :      0.00s CPU      0.00s WALL (       1 calls)
     v_xc         :      0.00s CPU      0.00s WALL (       1 calls)
     newd         :      0.09s CPU      0.11s WALL (       1 calls)
     PAW_pot      :      0.04s CPU      0.04s WALL (       1 calls)

     Called by c_bands:
     init_us_2    :      0.08s CPU      0.09s WALL (     101 calls)
     init_us_2:cp :      0.08s CPU      0.09s WALL (     101 calls)
     cegterg      :    132.86s CPU    137.64s WALL (     215 calls)

     Called by sum_band:

     Called by *egterg:
     cdiaghg      :     21.05s CPU     21.21s WALL (    3209 calls)
     cegterg:over :     14.72s CPU     14.91s WALL (    3108 calls)
     cegterg:upda :      5.38s CPU      5.42s WALL (    3108 calls)
     cegterg:last :     12.67s CPU     12.68s WALL (    1230 calls)
     h_psi        :     68.12s CPU     72.76s WALL (    3424 calls)
     s_psi        :      7.10s CPU      7.22s WALL (    3424 calls)
     g_psi        :      0.42s CPU      0.42s WALL (    3108 calls)

     Called by h_psi:
     h_psi:calbec :     10.59s CPU     11.15s WALL (    3424 calls)
     vloc_psi     :     49.33s CPU     53.21s WALL (    3424 calls)
     add_vuspsi   :      7.73s CPU      7.90s WALL (    3424 calls)

     General routines
     calbec       :     10.58s CPU     11.14s WALL (    3424 calls)
     fft          :      0.37s CPU      0.37s WALL (       6 calls)
     ffts         :      0.27s CPU      0.27s WALL (       1 calls)
     fftw         :     45.70s CPU     49.30s WALL (  219372 calls)
     interpolate  :      0.27s CPU      0.27s WALL (       1 calls)

     Parallel routines

     PAW routines
     PAW_pot      :      0.04s CPU      0.04s WALL (       1 calls)

     PWSCF        :   2m23.35s CPU   2m40.51s WALL


   This run was terminated on:  10:20:20  22Sep2023            

=------------------------------------------------------------------------------=
   JOB DONE.
=------------------------------------------------------------------------------=
