
     Program BANDS v.7.1 starts on 22Sep2023 at 10:53:47 

     This program is part of the open-source Quantum ESPRESSO suite
     for quantum simulation of materials; please cite
         "P. Giannozzi et al., J. Phys.:Condens. Matter 21 395502 (2009);
         "P. Giannozzi et al., J. Phys.:Condens. Matter 29 465901 (2017);
         "P. Giannozzi et al., J. Chem. Phys. 152 154105 (2020);
          URL http://www.quantum-espresso.org", 
     in publications or presentations arising from this work. More details at
     http://www.quantum-espresso.org/quote

     Parallel version (MPI & OpenMP), running on      10 processor cores
     Number of MPI processes:                10
     Threads/MPI process:                     1

     MPI processes distributed on     1 nodes
     R & G space division:  proc/nbgrp/npool/nimage =      10
     11768 MiB available memory on the printing compute node when the environment starts


     Reading xml data from directory:

     ./work/pwscf.save/
     file S.pbe-n-kjpaw_psl.1.0.0.UPF: wavefunction(s)  3S 3P renormalized
     file Fe.pbe-spn-kjpaw_psl.1.0.0.UPF: wavefunction(s)  3P 3D renormalized

     IMPORTANT: XC functional enforced from input :
     Exchange-correlation= PBE
                           (   1   4   3   4   0   0   0)
     Any further DFT definition will be discarded
     Please, verify this is what you really want


     Parallelization info
     --------------------
     sticks:   dense  smooth     PW     G-vecs:    dense   smooth      PW
     Min         411     236     66                19790     8572    1296
     Max         413     237     67                19791     8575    1297
     Sum        4117    2361    665               197909    85735   12965

     Using Slab Decomposition

     Reading collected, re-writing distributed wavefunctions
     high-symmetry point:  0.5000 0.5000 0.5000   x coordinate   0.0000
     high-symmetry point:  0.0000 0.0000 0.0000   x coordinate   0.8660
     high-symmetry point:  0.0000 0.5000 0.0000   x coordinate   1.3660
     high-symmetry point:  0.5000 0.5000 0.0000   x coordinate   1.8660
     high-symmetry point:  0.0000 0.0000 0.0000   x coordinate   2.5731

     Plottable bands (eV) written to file bands.out.gnu
     Bands written to file bands.out

 **************************************************************************

                    xk=(   0.50000,   0.50000,   0.50000  )

     zone border point and non-symmorphic group 
     symmetry decomposition not available

 **************************************************************************

 **************************************************************************

                    xk=(   0.47500,   0.47500,   0.47500  )

     point group C_3 (3)    
     there are  3 classes
     the character table:

       E     C3    C3^2 
A      1.00  1.00  1.00
E      1.00 -0.50 -0.50
E*     1.00 -0.50 -0.50
     imaginary part
A      0.00  0.00  0.00
E      0.00  0.87 -0.87
E*     0.00 -0.87  0.87

     the symmetry operations in each class and the name of the first element:

     E        1
                                                                 
     C3       3
                                                                 
     C3^2     2
                                                                 

     Band symmetry, C_3 (3)     point group:

     e(  1 -  4) =    -73.42594  eV     4   -->   2 A              
     e(  1 -  4) =    -73.42594  eV     4   --> E              
     e(  1 -  4) =    -73.42594  eV     4   --> E*             
     e(  5 -  8) =    -39.60626  eV     4   -->   ?
     e(  9 - 12) =    -39.60366  eV     4   -->   ?
     e( 13 - 16) =    -39.35487  eV     4   -->   2 A              
     e( 13 - 16) =    -39.35487  eV     4   --> E              
     e( 13 - 16) =    -39.35487  eV     4   --> E*             
     e( 17 - 17) =     -2.38112  eV     1   --> A              
     e( 18 - 18) =     -2.36037  eV     1   --> A              
     e( 19 - 20) =     -2.35985  eV     2   --> E              
     e( 19 - 20) =     -2.35985  eV     2   --> E*             
     e( 21 - 22) =      0.23076  eV     2   --> E              
     e( 21 - 22) =      0.23076  eV     2   --> E*             
     e( 23 - 23) =      0.23589  eV     1   --> A              
     e( 24 - 24) =      0.24498  eV     1   --> A              
     e( 25 - 25) =      6.31860  eV     1   --> A              
     e( 26 - 27) =      6.36286  eV     2   --> E              
     e( 26 - 27) =      6.36286  eV     2   --> E*             
     e( 28 - 28) =      6.36998  eV     1   --> A              
     e( 29 - 30) =      7.45125  eV     2   --> E              
     e( 29 - 30) =      7.45125  eV     2   --> E*             
     e( 31 - 31) =      7.47860  eV     1   --> A              
     e( 32 - 32) =      7.54209  eV     1   --> A              
     e( 33 - 34) =      8.32474  eV     2   --> E              
     e( 33 - 34) =      8.32474  eV     2   --> E*             
     e( 35 - 36) =      8.35538  eV     2   --> E              
     e( 35 - 36) =      8.35538  eV     2   --> E*             
     e( 37 - 38) =     10.52432  eV     2   --> E              
     e( 37 - 38) =     10.52432  eV     2   --> E*             
     e( 39 - 40) =     10.54779  eV     2   --> E              
     e( 39 - 40) =     10.54779  eV     2   --> E*             
     e( 41 - 41) =     10.81181  eV     1   --> A              
     e( 42 - 43) =     10.85421  eV     2   --> E              
     e( 42 - 43) =     10.85421  eV     2   --> E*             
     e( 44 - 44) =     10.86091  eV     1   --> A              
     e( 45 - 45) =     11.66931  eV     1   --> A              
     e( 46 - 47) =     11.67790  eV     2   --> E              
     e( 46 - 47) =     11.67790  eV     2   --> E*             
     e( 48 - 48) =     11.70761  eV     1   --> A              
     e( 49 - 50) =     11.82046  eV     2   --> E              
     e( 49 - 50) =     11.82046  eV     2   --> E*             
     e( 51 - 52) =     11.83488  eV     2   --> E              
     e( 51 - 52) =     11.83488  eV     2   --> E*             
     e( 53 - 53) =     12.46430  eV     1   --> A              
     e( 54 - 55) =     12.47172  eV     2   --> E              
     e( 54 - 55) =     12.47172  eV     2   --> E*             
     e( 56 - 56) =     12.47233  eV     1   --> A              
     e( 57 - 57) =     14.30932  eV     1   --> A              
     e( 58 - 58) =     14.32265  eV     1   --> A              
     e( 59 - 60) =     14.32280  eV     2   --> E              
     e( 59 - 60) =     14.32280  eV     2   --> E*             
     e( 61 - 62) =     15.26703  eV     2   --> E              
     e( 61 - 62) =     15.26703  eV     2   --> E*             
     e( 63 - 64) =     15.27931  eV     2   --> E              
     e( 63 - 64) =     15.27931  eV     2   --> E*             
     e( 65 - 65) =     16.18002  eV     1   --> A              
     e( 66 - 66) =     16.18528  eV     1   --> A              
     e( 67 - 68) =     16.19760  eV     2   --> E              
     e( 67 - 68) =     16.19760  eV     2   --> E*             

 **************************************************************************

 **************************************************************************

                    xk=(   0.45000,   0.45000,   0.45000  )

     Band symmetry, C_3 (3)     point group:

     e(  1 -  4) =    -73.42596  eV     4   -->   2 A              
     e(  1 -  4) =    -73.42596  eV     4   --> E              
     e(  1 -  4) =    -73.42596  eV     4   --> E*             
     e(  5 -  8) =    -39.60635  eV     4   -->   ?
     e(  9 - 12) =    -39.60375  eV     4   -->   ?
     e( 13 - 16) =    -39.35495  eV     4   -->   2 A              
     e( 13 - 16) =    -39.35495  eV     4   --> E              
     e( 13 - 16) =    -39.35495  eV     4   --> E*             
     e( 17 - 17) =     -2.43872  eV     1   --> A              
     e( 18 - 18) =     -2.35810  eV     1   --> A              
     e( 19 - 20) =     -2.35606  eV     2   --> E              
     e( 19 - 20) =     -2.35606  eV     2   --> E*             
     e( 21 - 22) =      0.24497  eV     2   --> E              
     e( 21 - 22) =      0.24497  eV     2   --> E*             
     e( 23 - 23) =      0.26552  eV     1   --> A              
     e( 24 - 24) =      0.29914  eV     1   --> A              
     e( 25 - 25) =      6.19486  eV     1   --> A              
     e( 26 - 27) =      6.34286  eV     2   --> E              
     e( 26 - 27) =      6.34286  eV     2   --> E*             
     e( 28 - 28) =      6.37228  eV     1   --> A              
     e( 29 - 30) =      7.38589  eV     2   --> E              
     e( 29 - 30) =      7.38589  eV     2   --> E*             
     e( 31 - 31) =      7.48109  eV     1   --> A              
     e( 32 - 32) =      7.70703  eV     1   --> A              
     e( 33 - 34) =      8.31926  eV     2   --> E              
     e( 33 - 34) =      8.31926  eV     2   --> E*             
     e( 35 - 36) =      8.42697  eV     2   --> E              
     e( 35 - 36) =      8.42697  eV     2   --> E*             
     e( 37 - 38) =     10.43170  eV     2   --> E              
     e( 37 - 38) =     10.43170  eV     2   --> E*             
     e( 39 - 40) =     10.51333  eV     2   --> E              
     e( 39 - 40) =     10.51333  eV     2   --> E*             
     e( 41 - 41) =     10.65942  eV     1   --> A              
     e( 42 - 43) =     10.81171  eV     2   --> E              
     e( 42 - 43) =     10.81171  eV     2   --> E*             
     e( 44 - 44) =     10.82186  eV     1   --> A              
     e( 45 - 45) =     11.70219  eV     1   --> A              
     e( 46 - 47) =     11.72124  eV     2   --> E              
     e( 46 - 47) =     11.72124  eV     2   --> E*             
     e( 48 - 48) =     11.82127  eV     1   --> A              
     e( 49 - 50) =     11.85105  eV     2   --> E              
     e( 49 - 50) =     11.85105  eV     2   --> E*             
     e( 51 - 52) =     11.90367  eV     2   --> E              
     e( 51 - 52) =     11.90367  eV     2   --> E*             
     e( 53 - 53) =     12.45984  eV     1   --> A              
     e( 54 - 55) =     12.48910  eV     2   --> E              
     e( 54 - 55) =     12.48910  eV     2   --> E*             
     e( 56 - 56) =     12.49227  eV     1   --> A              
     e( 57 - 57) =     14.30546  eV     1   --> A              
     e( 58 - 58) =     14.35789  eV     1   --> A              
     e( 59 - 60) =     14.35852  eV     2   --> E              
     e( 59 - 60) =     14.35852  eV     2   --> E*             
     e( 61 - 62) =     15.24488  eV     2   --> E              
     e( 61 - 62) =     15.24488  eV     2   --> E*             
     e( 63 - 64) =     15.29408  eV     2   --> E              
     e( 63 - 64) =     15.29408  eV     2   --> E*             
     e( 65 - 65) =     16.12589  eV     1   --> A              
     e( 66 - 66) =     16.14667  eV     1   --> A              
     e( 67 - 68) =     16.19517  eV     2   --> E              
     e( 67 - 68) =     16.19517  eV     2   --> E*             

 **************************************************************************

 **************************************************************************

                    xk=(   0.42500,   0.42500,   0.42500  )

     Band symmetry, C_3 (3)     point group:

     e(  1 -  4) =    -73.42598  eV     4   -->   2 A              
     e(  1 -  4) =    -73.42598  eV     4   --> E              
     e(  1 -  4) =    -73.42598  eV     4   --> E*             
     e(  5 -  8) =    -39.60636  eV     4   -->   ?
     e(  9 - 10) =    -39.60390  eV     2   -->   ?
     e( 11 - 12) =    -39.60372  eV     2   -->   ?
     e( 13 - 16) =    -39.35499  eV     4   -->   2 A              
     e( 13 - 16) =    -39.35499  eV     4   --> E              
     e( 13 - 16) =    -39.35499  eV     4   --> E*             
     e( 17 - 17) =     -2.52759  eV     1   --> A              
     e( 18 - 18) =     -2.35403  eV     1   --> A              
     e( 19 - 20) =     -2.34963  eV     2   --> E              
     e( 19 - 20) =     -2.34963  eV     2   --> E*             
     e( 21 - 22) =      0.26781  eV     2   --> E              
     e( 21 - 22) =      0.26781  eV     2   --> E*             
     e( 23 - 23) =      0.31416  eV     1   --> A              
     e( 24 - 24) =      0.38059  eV     1   --> A              
     e( 25 - 25) =      6.04330  eV     1   --> A              
     e( 26 - 27) =      6.30806  eV     2   --> E              
     e( 26 - 27) =      6.30806  eV     2   --> E*             
     e( 28 - 28) =      6.37732  eV     1   --> A              
     e( 29 - 30) =      7.30719  eV     2   --> E              
     e( 29 - 30) =      7.30719  eV     2   --> E*             
     e( 31 - 31) =      7.48390  eV     1   --> A              
     e( 32 - 32) =      7.92716  eV     1   --> A              
     e( 33 - 34) =      8.31051  eV     2   --> E              
     e( 33 - 34) =      8.31051  eV     2   --> E*             
     e( 35 - 36) =      8.51242  eV     2   --> E              
     e( 35 - 36) =      8.51242  eV     2   --> E*             
     e( 37 - 38) =     10.30214  eV     2   --> E              
     e( 37 - 38) =     10.30214  eV     2   --> E*             
     e( 39 - 40) =     10.45000  eV     2   --> E              
     e( 39 - 40) =     10.45000  eV     2   --> E*             
     e( 41 - 41) =     10.46758  eV     1   --> A              
     e( 42 - 42) =     10.76341  eV     1   --> A              
     e( 43 - 44) =     10.77695  eV     2   --> E              
     e( 43 - 44) =     10.77695  eV     2   --> E*             
     e( 45 - 45) =     11.74985  eV     1   --> A              
     e( 46 - 47) =     11.76550  eV     2   --> E              
     e( 46 - 47) =     11.76550  eV     2   --> E*             
     e( 48 - 49) =     11.89831  eV     2   --> E              
     e( 48 - 49) =     11.89831  eV     2   --> E*             
     e( 50 - 50) =     11.94766  eV     1   --> A              
     e( 51 - 52) =     12.00002  eV     2   --> E              
     e( 51 - 52) =     12.00002  eV     2   --> E*             
     e( 53 - 53) =     12.45271  eV     1   --> A              
     e( 54 - 55) =     12.51645  eV     2   --> E              
     e( 54 - 55) =     12.51645  eV     2   --> E*             
     e( 56 - 56) =     12.52525  eV     1   --> A              
     e( 57 - 57) =     14.29945  eV     1   --> A              
     e( 58 - 58) =     14.41458  eV     1   --> A              
     e( 59 - 60) =     14.41616  eV     2   --> E              
     e( 59 - 60) =     14.41616  eV     2   --> E*             
     e( 61 - 62) =     15.20726  eV     2   --> E              
     e( 61 - 62) =     15.20726  eV     2   --> E*             
     e( 63 - 64) =     15.31832  eV     2   --> E              
     e( 63 - 64) =     15.31832  eV     2   --> E*             
     e( 65 - 65) =     16.04013  eV     1   --> A              
     e( 66 - 66) =     16.08578  eV     1   --> A              
     e( 67 - 68) =     16.19168  eV     2   --> E              
     e( 67 - 68) =     16.19168  eV     2   --> E*             

 **************************************************************************

 **************************************************************************

                    xk=(   0.40000,   0.40000,   0.40000  )

     Band symmetry, C_3 (3)     point group:

     e(  1 -  4) =    -73.42602  eV     4   -->   2 A              
     e(  1 -  4) =    -73.42602  eV     4   --> E              
     e(  1 -  4) =    -73.42602  eV     4   --> E*             
     e(  5 -  5) =    -39.60630  eV     1   -->   ?
     e(  6 -  8) =    -39.60616  eV     3   -->   ?
     e(  9 - 10) =    -39.60383  eV     2   -->   ?
     e( 11 - 12) =    -39.60371  eV     2   -->   ?
     e( 13 - 16) =    -39.35491  eV     4   -->   2 A              
     e( 13 - 16) =    -39.35491  eV     4   --> E              
     e( 13 - 16) =    -39.35491  eV     4   --> E*             
     e( 17 - 17) =     -2.63968  eV     1   --> A              
     e( 18 - 18) =     -2.34776  eV     1   --> A              
     e( 19 - 20) =     -2.34039  eV     2   --> E              
     e( 19 - 20) =     -2.34039  eV     2   --> E*             
     e( 21 - 22) =      0.29809  eV     2   --> E              
     e( 21 - 22) =      0.29809  eV     2   --> E*             
     e( 23 - 23) =      0.38077  eV     1   --> A              
     e( 24 - 24) =      0.47886  eV     1   --> A              
     e( 25 - 25) =      5.89257  eV     1   --> A              
     e( 26 - 27) =      6.25794  eV     2   --> E              
     e( 26 - 27) =      6.25794  eV     2   --> E*             
     e( 28 - 28) =      6.38687  eV     1   --> A              
     e( 29 - 30) =      7.23454  eV     2   --> E              
     e( 29 - 30) =      7.23454  eV     2   --> E*             
     e( 31 - 31) =      7.48517  eV     1   --> A              
     e( 32 - 32) =      8.17353  eV     1   --> A              
     e( 33 - 34) =      8.29877  eV     2   --> E              
     e( 33 - 34) =      8.29877  eV     2   --> E*             
     e( 35 - 36) =      8.58587  eV     2   --> E              
     e( 35 - 36) =      8.58587  eV     2   --> E*             
     e( 37 - 38) =     10.16029  eV     2   --> E              
     e( 37 - 38) =     10.16029  eV     2   --> E*             
     e( 39 - 39) =     10.26303  eV     1   --> A              
     e( 40 - 41) =     10.36412  eV     2   --> E              
     e( 40 - 41) =     10.36412  eV     2   --> E*             
     e( 42 - 42) =     10.69122  eV     1   --> A              
     e( 43 - 44) =     10.75988  eV     2   --> E              
     e( 43 - 44) =     10.75988  eV     2   --> E*             
     e( 45 - 45) =     11.80560  eV     1   --> A              
     e( 46 - 47) =     11.80833  eV     2   --> E              
     e( 46 - 47) =     11.80833  eV     2   --> E*             
     e( 48 - 49) =     11.95234  eV     2   --> E              
     e( 48 - 49) =     11.95234  eV     2   --> E*             
     e( 50 - 50) =     12.05979  eV     1   --> A              
     e( 51 - 52) =     12.10318  eV     2   --> E              
     e( 51 - 52) =     12.10318  eV     2   --> E*             
     e( 53 - 53) =     12.44401  eV     1   --> A              
     e( 54 - 55) =     12.55041  eV     2   --> E              
     e( 54 - 55) =     12.55041  eV     2   --> E*             
     e( 56 - 56) =     12.56939  eV     1   --> A              
     e( 57 - 57) =     14.29220  eV     1   --> A              
     e( 58 - 58) =     14.48910  eV     1   --> A              
     e( 59 - 60) =     14.49295  eV     2   --> E              
     e( 59 - 60) =     14.49295  eV     2   --> E*             
     e( 61 - 62) =     15.15361  eV     2   --> E              
     e( 61 - 62) =     15.15361  eV     2   --> E*             
     e( 63 - 64) =     15.35174  eV     2   --> E              
     e( 63 - 64) =     15.35174  eV     2   --> E*             
     e( 65 - 65) =     15.92915  eV     1   --> A              
     e( 66 - 66) =     16.00887  eV     1   --> A              
     e( 67 - 68) =     16.18832  eV     2   --> E              
     e( 67 - 68) =     16.18832  eV     2   --> E*             

 **************************************************************************

 **************************************************************************

                    xk=(   0.37500,   0.37500,   0.37500  )

     Band symmetry, C_3 (3)     point group:

     e(  1 -  4) =    -73.42598  eV     4   -->   2 A              
     e(  1 -  4) =    -73.42598  eV     4   --> E              
     e(  1 -  4) =    -73.42598  eV     4   --> E*             
     e(  5 -  5) =    -39.60632  eV     1   -->   ?
     e(  6 -  7) =    -39.60606  eV     2   -->   ?
     e(  8 -  8) =    -39.60586  eV     1   -->   ?
     e(  9 - 10) =    -39.60403  eV     2   -->   ?
     e( 11 - 12) =    -39.60376  eV     2   -->   ?
     e( 13 - 16) =    -39.35496  eV     4   -->   2 A              
     e( 13 - 16) =    -39.35496  eV     4   --> E              
     e( 13 - 16) =    -39.35496  eV     4   --> E*             
     e( 17 - 17) =     -2.76715  eV     1   --> A              
     e( 18 - 18) =     -2.33886  eV     1   --> A              
     e( 19 - 20) =     -2.32819  eV     2   --> E              
     e( 19 - 20) =     -2.32819  eV     2   --> E*             
     e( 21 - 22) =      0.33416  eV     2   --> E              
     e( 21 - 22) =      0.33416  eV     2   --> E*             
     e( 23 - 23) =      0.46389  eV     1   --> A              
     e( 24 - 24) =      0.58303  eV     1   --> A              
     e( 25 - 25) =      5.75820  eV     1   --> A              
     e( 26 - 27) =      6.19438  eV     2   --> E              
     e( 26 - 27) =      6.19438  eV     2   --> E*             
     e( 28 - 28) =      6.40314  eV     1   --> A              
     e( 29 - 30) =      7.17777  eV     2   --> E              
     e( 29 - 30) =      7.17777  eV     2   --> E*             
     e( 31 - 31) =      7.48262  eV     1   --> A              
     e( 32 - 33) =      8.28361  eV     2   --> E              
     e( 32 - 33) =      8.28361  eV     2   --> E*             
     e( 34 - 34) =      8.42947  eV     1   --> A              
     e( 35 - 36) =      8.62856  eV     2   --> E              
     e( 35 - 36) =      8.62856  eV     2   --> E*             
     e( 37 - 38) =     10.02414  eV     2   --> E              
     e( 37 - 38) =     10.02414  eV     2   --> E*             
     e( 39 - 39) =     10.05959  eV     1   --> A              
     e( 40 - 41) =     10.27085  eV     2   --> E              
     e( 40 - 41) =     10.27085  eV     2   --> E*             
     e( 42 - 42) =     10.60907  eV     1   --> A              
     e( 43 - 44) =     10.75637  eV     2   --> E              
     e( 43 - 44) =     10.75637  eV     2   --> E*             
     e( 45 - 46) =     11.85254  eV     2   --> E              
     e( 45 - 46) =     11.85254  eV     2   --> E*             
     e( 47 - 47) =     11.86444  eV     1   --> A              
     e( 48 - 49) =     12.00420  eV     2   --> E              
     e( 48 - 49) =     12.00420  eV     2   --> E*             
     e( 50 - 50) =     12.14371  eV     1   --> A              
     e( 51 - 52) =     12.19965  eV     2   --> E              
     e( 51 - 52) =     12.19965  eV     2   --> E*             
     e( 53 - 53) =     12.43765  eV     1   --> A              
     e( 54 - 55) =     12.58607  eV     2   --> E              
     e( 54 - 55) =     12.58607  eV     2   --> E*             
     e( 56 - 56) =     12.61998  eV     1   --> A              
     e( 57 - 57) =     14.28372  eV     1   --> A              
     e( 58 - 58) =     14.57425  eV     1   --> A              
     e( 59 - 60) =     14.58479  eV     2   --> E              
     e( 59 - 60) =     14.58479  eV     2   --> E*             
     e( 61 - 62) =     15.08363  eV     2   --> E              
     e( 61 - 62) =     15.08363  eV     2   --> E*             
     e( 63 - 64) =     15.39380  eV     2   --> E              
     e( 63 - 64) =     15.39380  eV     2   --> E*             
     e( 65 - 65) =     15.80105  eV     1   --> A              
     e( 66 - 66) =     15.92700  eV     1   --> A              
     e( 67 - 68) =     16.18709  eV     2   --> E              
     e( 67 - 68) =     16.18709  eV     2   --> E*             

 **************************************************************************

 **************************************************************************

                    xk=(   0.35000,   0.35000,   0.35000  )

     Band symmetry, C_3 (3)     point group:

     e(  1 -  4) =    -73.42602  eV     4   -->   2 A              
     e(  1 -  4) =    -73.42602  eV     4   --> E              
     e(  1 -  4) =    -73.42602  eV     4   --> E*             
     e(  5 -  5) =    -39.60632  eV     1   -->   ?
     e(  6 -  7) =    -39.60597  eV     2   -->   ?
     e(  8 -  8) =    -39.60581  eV     1   -->   ?
     e(  9 - 10) =    -39.60417  eV     2   -->   ?
     e( 11 - 12) =    -39.60377  eV     2   -->   ?
     e( 13 - 16) =    -39.35496  eV     4   -->   2 A              
     e( 13 - 16) =    -39.35496  eV     4   --> E              
     e( 13 - 16) =    -39.35496  eV     4   --> E*             
     e( 17 - 17) =     -2.90331  eV     1   --> A              
     e( 18 - 18) =     -2.32688  eV     1   --> A              
     e( 19 - 20) =     -2.31287  eV     2   --> E              
     e( 19 - 20) =     -2.31287  eV     2   --> E*             
     e( 21 - 22) =      0.37404  eV     2   --> E              
     e( 21 - 22) =      0.37404  eV     2   --> E*             
     e( 23 - 23) =      0.56161  eV     1   --> A              
     e( 24 - 24) =      0.68305  eV     1   --> A              
     e( 25 - 25) =      5.64933  eV     1   --> A              
     e( 26 - 27) =      6.12236  eV     2   --> E              
     e( 26 - 27) =      6.12236  eV     2   --> E*             
     e( 28 - 28) =      6.42884  eV     1   --> A              
     e( 29 - 30) =      7.13909  eV     2   --> E              
     e( 29 - 30) =      7.13909  eV     2   --> E*             
     e( 31 - 31) =      7.47379  eV     1   --> A              
     e( 32 - 33) =      8.26284  eV     2   --> E              
     e( 32 - 33) =      8.26284  eV     2   --> E*             
     e( 34 - 35) =      8.63218  eV     2   --> E              
     e( 34 - 35) =      8.63218  eV     2   --> E*             
     e( 36 - 36) =      8.68319  eV     1   --> A              
     e( 37 - 37) =      9.86645  eV     1   --> A              
     e( 38 - 39) =      9.90057  eV     2   --> E              
     e( 38 - 39) =      9.90057  eV     2   --> E*             
     e( 40 - 41) =     10.18494  eV     2   --> E              
     e( 40 - 41) =     10.18494  eV     2   --> E*             
     e( 42 - 42) =     10.51873  eV     1   --> A              
     e( 43 - 44) =     10.76100  eV     2   --> E              
     e( 43 - 44) =     10.76100  eV     2   --> E*             
     e( 45 - 46) =     11.89934  eV     2   --> E              
     e( 45 - 46) =     11.89934  eV     2   --> E*             
     e( 47 - 47) =     11.92284  eV     1   --> A              
     e( 48 - 49) =     12.04997  eV     2   --> E              
     e( 48 - 49) =     12.04997  eV     2   --> E*             
     e( 50 - 50) =     12.18869  eV     1   --> A              
     e( 51 - 52) =     12.28291  eV     2   --> E              
     e( 51 - 52) =     12.28291  eV     2   --> E*             
     e( 53 - 53) =     12.44374  eV     1   --> A              
     e( 54 - 55) =     12.61736  eV     2   --> E              
     e( 54 - 55) =     12.61736  eV     2   --> E*             
     e( 56 - 56) =     12.67046  eV     1   --> A              
     e( 57 - 57) =     14.27441  eV     1   --> A              
     e( 58 - 58) =     14.65969  eV     1   --> A              
     e( 59 - 60) =     14.68692  eV     2   --> E              
     e( 59 - 60) =     14.68692  eV     2   --> E*             
     e( 61 - 62) =     14.99936  eV     2   --> E              
     e( 61 - 62) =     14.99936  eV     2   --> E*             
     e( 63 - 64) =     15.44430  eV     2   --> E              
     e( 63 - 64) =     15.44430  eV     2   --> E*             
     e( 65 - 65) =     15.66269  eV     1   --> A              
     e( 66 - 66) =     15.85815  eV     1   --> A              
     e( 67 - 68) =     16.19078  eV     2   --> E              
     e( 67 - 68) =     16.19078  eV     2   --> E*             

 **************************************************************************

 **************************************************************************

                    xk=(   0.32500,   0.32500,   0.32500  )

     Band symmetry, C_3 (3)     point group:

     e(  1 -  1) =    -73.42603  eV     1   --> A              
     e(  2 -  4) =    -73.42593  eV     3   --> A              
     e(  2 -  4) =    -73.42593  eV     3   --> E              
     e(  2 -  4) =    -73.42593  eV     3   --> E*             
     e(  5 -  5) =    -39.60629  eV     1   -->   ?
     e(  6 -  7) =    -39.60588  eV     2   -->   ?
     e(  8 -  8) =    -39.60561  eV     1   -->   ?
     e(  9 - 10) =    -39.60427  eV     2   -->   ?
     e( 11 - 12) =    -39.60377  eV     2   -->   ?
     e( 13 - 16) =    -39.35495  eV     4   -->   2 A              
     e( 13 - 16) =    -39.35495  eV     4   --> E              
     e( 13 - 16) =    -39.35495  eV     4   --> E*             
     e( 17 - 17) =     -3.04282  eV     1   --> A              
     e( 18 - 18) =     -2.31144  eV     1   --> A              
     e( 19 - 20) =     -2.29434  eV     2   --> E              
     e( 19 - 20) =     -2.29434  eV     2   --> E*             
     e( 21 - 22) =      0.41551  eV     2   --> E              
     e( 21 - 22) =      0.41551  eV     2   --> E*             
     e( 23 - 23) =      0.67129  eV     1   --> A              
     e( 24 - 24) =      0.77097  eV     1   --> A              
     e( 25 - 25) =      5.57144  eV     1   --> A              
     e( 26 - 27) =      6.04899  eV     2   --> E              
     e( 26 - 27) =      6.04899  eV     2   --> E*             
     e( 28 - 28) =      6.46695  eV     1   --> A              
     e( 29 - 30) =      7.11614  eV     2   --> E              
     e( 29 - 30) =      7.11614  eV     2   --> E*             
     e( 31 - 31) =      7.45634  eV     1   --> A              
     e( 32 - 33) =      8.23056  eV     2   --> E              
     e( 32 - 33) =      8.23056  eV     2   --> E*             
     e( 34 - 35) =      8.60421  eV     2   --> E              
     e( 34 - 35) =      8.60421  eV     2   --> E*             
     e( 36 - 36) =      8.92276  eV     1   --> A              
     e( 37 - 37) =      9.69217  eV     1   --> A              
     e( 38 - 39) =      9.78584  eV     2   --> E              
     e( 38 - 39) =      9.78584  eV     2   --> E*             
     e( 40 - 41) =     10.11534  eV     2   --> E              
     e( 40 - 41) =     10.11534  eV     2   --> E*             
     e( 42 - 42) =     10.42047  eV     1   --> A              
     e( 43 - 44) =     10.76964  eV     2   --> E              
     e( 43 - 44) =     10.76964  eV     2   --> E*             
     e( 45 - 46) =     11.94797  eV     2   --> E              
     e( 45 - 46) =     11.94797  eV     2   --> E*             
     e( 47 - 47) =     11.97912  eV     1   --> A              
     e( 48 - 49) =     12.08886  eV     2   --> E              
     e( 48 - 49) =     12.08886  eV     2   --> E*             
     e( 50 - 50) =     12.18946  eV     1   --> A              
     e( 51 - 52) =     12.35038  eV     2   --> E              
     e( 51 - 52) =     12.35038  eV     2   --> E*             
     e( 53 - 53) =     12.47029  eV     1   --> A              
     e( 54 - 55) =     12.63856  eV     2   --> E              
     e( 54 - 55) =     12.63856  eV     2   --> E*             
     e( 56 - 56) =     12.71494  eV     1   --> A              
     e( 57 - 57) =     14.26367  eV     1   --> A              
     e( 58 - 58) =     14.73270  eV     1   --> A              
     e( 59 - 60) =     14.78864  eV     2   --> E              
     e( 59 - 60) =     14.78864  eV     2   --> E*             
     e( 61 - 61) =     14.91199  eV     1   -->   ?
     e( 62 - 62) =     14.91210  eV     1   -->   ?
     e( 63 - 64) =     15.50257  eV     2   --> E              
     e( 63 - 64) =     15.50257  eV     2   --> E*             
     e( 65 - 65) =     15.51889  eV     1   --> A              
     e( 66 - 66) =     15.82458  eV     1   --> A              
     e( 67 - 68) =     16.20206  eV     2   --> E              
     e( 67 - 68) =     16.20206  eV     2   --> E*             

 **************************************************************************

 **************************************************************************

                    xk=(   0.30000,   0.30000,   0.30000  )

     Band symmetry, C_3 (3)     point group:

     e(  1 -  1) =    -73.42603  eV     1   --> A              
     e(  2 -  4) =    -73.42592  eV     3   --> A              
     e(  2 -  4) =    -73.42592  eV     3   --> E              
     e(  2 -  4) =    -73.42592  eV     3   --> E*             
     e(  5 -  5) =    -39.60627  eV     1   -->   ?
     e(  6 -  7) =    -39.60580  eV     2   -->   ?
     e(  8 -  8) =    -39.60538  eV     1   -->   ?
     e(  9 - 10) =    -39.60436  eV     2   -->   ?
     e( 11 - 12) =    -39.60373  eV     2   -->   ?
     e( 13 - 13) =    -39.35496  eV     1   --> A              
     e( 14 - 16) =    -39.35481  eV     3   --> A              
     e( 14 - 16) =    -39.35481  eV     3   --> E              
     e( 14 - 16) =    -39.35481  eV     3   --> E*             
     e( 17 - 17) =     -3.18154  eV     1   --> A              
     e( 18 - 18) =     -2.29230  eV     1   --> A              
     e( 19 - 20) =     -2.27261  eV     2   --> E              
     e( 19 - 20) =     -2.27261  eV     2   --> E*             
     e( 21 - 22) =      0.45622  eV     2   --> E              
     e( 21 - 22) =      0.45622  eV     2   --> E*             
     e( 23 - 23) =      0.78601  eV     1   --> A              
     e( 24 - 24) =      0.84492  eV     1   --> A              
     e( 25 - 25) =      5.52714  eV     1   --> A              
     e( 26 - 27) =      5.98167  eV     2   --> E              
     e( 26 - 27) =      5.98167  eV     2   --> E*             
     e( 28 - 28) =      6.52066  eV     1   --> A              
     e( 29 - 30) =      7.10467  eV     2   --> E              
     e( 29 - 30) =      7.10467  eV     2   --> E*             
     e( 31 - 31) =      7.42845  eV     1   --> A              
     e( 32 - 33) =      8.17661  eV     2   --> E              
     e( 32 - 33) =      8.17661  eV     2   --> E*             
     e( 34 - 35) =      8.56738  eV     2   --> E              
     e( 34 - 35) =      8.56738  eV     2   --> E*             
     e( 36 - 36) =      9.12727  eV     1   --> A              
     e( 37 - 37) =      9.55256  eV     1   --> A              
     e( 38 - 39) =      9.67338  eV     2   --> E              
     e( 38 - 39) =      9.67338  eV     2   --> E*             
     e( 40 - 41) =     10.06057  eV     2   --> E              
     e( 40 - 41) =     10.06057  eV     2   --> E*             
     e( 42 - 42) =     10.31397  eV     1   --> A              
     e( 43 - 44) =     10.77844  eV     2   --> E              
     e( 43 - 44) =     10.77844  eV     2   --> E*             
     e( 45 - 46) =     11.99682  eV     2   --> E              
     e( 45 - 46) =     11.99682  eV     2   --> E*             
     e( 47 - 47) =     12.03267  eV     1   --> A              
     e( 48 - 49) =     12.12145  eV     2   --> E              
     e( 48 - 49) =     12.12145  eV     2   --> E*             
     e( 50 - 50) =     12.15741  eV     1   --> A              
     e( 51 - 52) =     12.40147  eV     2   --> E              
     e( 51 - 52) =     12.40147  eV     2   --> E*             
     e( 53 - 53) =     12.50980  eV     1   --> A              
     e( 54 - 55) =     12.64537  eV     2   --> E              
     e( 54 - 55) =     12.64537  eV     2   --> E*             
     e( 56 - 56) =     12.75063  eV     1   --> A              
     e( 57 - 57) =     14.24970  eV     1   --> A              
     e( 58 - 59) =     14.77710  eV     2   --> E              
     e( 58 - 59) =     14.77710  eV     2   --> E*             
     e( 60 - 60) =     14.78492  eV     1   --> A              
     e( 61 - 62) =     14.93934  eV     2   --> E              
     e( 61 - 62) =     14.93934  eV     2   --> E*             
     e( 63 - 63) =     15.37434  eV     1   --> A              
     e( 64 - 65) =     15.56716  eV     2   --> E              
     e( 64 - 65) =     15.56716  eV     2   --> E*             
     e( 66 - 66) =     15.84196  eV     1   --> A              
     e( 67 - 68) =     16.22238  eV     2   --> E              
     e( 67 - 68) =     16.22238  eV     2   --> E*             

 **************************************************************************

 **************************************************************************

                    xk=(   0.27500,   0.27500,   0.27500  )

     Band symmetry, C_3 (3)     point group:

     e(  1 -  4) =    -73.42604  eV     4   -->   2 A              
     e(  1 -  4) =    -73.42604  eV     4   --> E              
     e(  1 -  4) =    -73.42604  eV     4   --> E*             
     e(  5 -  5) =    -39.60641  eV     1   -->   ?
     e(  6 -  7) =    -39.60586  eV     2   -->   ?
     e(  8 -  8) =    -39.60521  eV     1   -->   ?
     e(  9 - 10) =    -39.60458  eV     2   -->   ?
     e( 11 - 12) =    -39.60382  eV     2   -->   ?
     e( 13 - 13) =    -39.35510  eV     1   --> A              
     e( 14 - 16) =    -39.35487  eV     3   --> A              
     e( 14 - 16) =    -39.35487  eV     3   --> E              
     e( 14 - 16) =    -39.35487  eV     3   --> E*             
     e( 17 - 17) =     -3.31631  eV     1   --> A              
     e( 18 - 18) =     -2.26938  eV     1   --> A              
     e( 19 - 20) =     -2.24782  eV     2   --> E              
     e( 19 - 20) =     -2.24782  eV     2   --> E*             
     e( 21 - 22) =      0.49387  eV     2   --> E              
     e( 21 - 22) =      0.49387  eV     2   --> E*             
     e( 23 - 23) =      0.86402  eV     1   --> A              
     e( 24 - 24) =      0.94026  eV     1   --> A              
     e( 25 - 25) =      5.51628  eV     1   --> A              
     e( 26 - 27) =      5.92686  eV     2   --> E              
     e( 26 - 27) =      5.92686  eV     2   --> E*             
     e( 28 - 28) =      6.59308  eV     1   --> A              
     e( 29 - 30) =      7.10037  eV     2   --> E              
     e( 29 - 30) =      7.10037  eV     2   --> E*             
     e( 31 - 31) =      7.38922  eV     1   --> A              
     e( 32 - 33) =      8.09366  eV     2   --> E              
     e( 32 - 33) =      8.09366  eV     2   --> E*             
     e( 34 - 35) =      8.54563  eV     2   --> E              
     e( 34 - 35) =      8.54563  eV     2   --> E*             
     e( 36 - 36) =      9.22722  eV     1   --> A              
     e( 37 - 37) =      9.50796  eV     1   --> A              
     e( 38 - 39) =      9.56104  eV     2   --> E              
     e( 38 - 39) =      9.56104  eV     2   --> E*             
     e( 40 - 41) =     10.01015  eV     2   --> E              
     e( 40 - 41) =     10.01015  eV     2   --> E*             
     e( 42 - 42) =     10.20103  eV     1   --> A              
     e( 43 - 44) =     10.78304  eV     2   --> E              
     e( 43 - 44) =     10.78304  eV     2   --> E*             
     e( 45 - 46) =     12.04364  eV     2   --> E              
     e( 45 - 46) =     12.04364  eV     2   --> E*             
     e( 47 - 47) =     12.08263  eV     1   --> A              
     e( 48 - 48) =     12.11094  eV     1   --> A              
     e( 49 - 50) =     12.14829  eV     2   --> E              
     e( 49 - 50) =     12.14829  eV     2   --> E*             
     e( 51 - 52) =     12.43658  eV     2   --> E              
     e( 51 - 52) =     12.43658  eV     2   --> E*             
     e( 53 - 53) =     12.54898  eV     1   --> A              
     e( 54 - 55) =     12.63635  eV     2   --> E              
     e( 54 - 55) =     12.63635  eV     2   --> E*             
     e( 56 - 56) =     12.77749  eV     1   --> A              
     e( 57 - 57) =     14.22969  eV     1   --> A              
     e( 58 - 59) =     14.68124  eV     2   --> E              
     e( 58 - 59) =     14.68124  eV     2   --> E*             
     e( 60 - 60) =     14.81827  eV     1   --> A              
     e( 61 - 62) =     15.06074  eV     2   --> E              
     e( 61 - 62) =     15.06074  eV     2   --> E*             
     e( 63 - 63) =     15.23735  eV     1   --> A              
     e( 64 - 65) =     15.63587  eV     2   --> E              
     e( 64 - 65) =     15.63587  eV     2   --> E*             
     e( 66 - 66) =     15.90789  eV     1   --> A              
     e( 67 - 68) =     16.25111  eV     2   --> E              
     e( 67 - 68) =     16.25111  eV     2   --> E*             

 **************************************************************************

 **************************************************************************

                    xk=(   0.25000,   0.25000,   0.25000  )

     Band symmetry, C_3 (3)     point group:

     e(  1 -  1) =    -73.42609  eV     1   --> A              
     e(  2 -  4) =    -73.42594  eV     3   --> A              
     e(  2 -  4) =    -73.42594  eV     3   --> E              
     e(  2 -  4) =    -73.42594  eV     3   --> E*             
     e(  5 -  5) =    -39.60644  eV     1   -->   ?
     e(  6 -  7) =    -39.60587  eV     2   -->   ?
     e(  8 -  8) =    -39.60504  eV     1   -->   ?
     e(  9 - 10) =    -39.60468  eV     2   -->   ?
     e( 11 - 12) =    -39.60389  eV     2   -->   ?
     e( 13 - 13) =    -39.35512  eV     1   --> A              
     e( 14 - 16) =    -39.35489  eV     3   --> A              
     e( 14 - 16) =    -39.35489  eV     3   --> E              
     e( 14 - 16) =    -39.35489  eV     3   --> E*             
     e( 17 - 17) =     -3.44471  eV     1   --> A              
     e( 18 - 18) =     -2.24282  eV     1   --> A              
     e( 19 - 20) =     -2.22028  eV     2   --> E              
     e( 19 - 20) =     -2.22028  eV     2   --> E*             
     e( 21 - 22) =      0.52643  eV     2   --> E              
     e( 21 - 22) =      0.52643  eV     2   --> E*             
     e( 23 - 23) =      0.88783  eV     1   --> A              
     e( 24 - 24) =      1.07063  eV     1   --> A              
     e( 25 - 25) =      5.53611  eV     1   --> A              
     e( 26 - 27) =      5.88951  eV     2   --> E              
     e( 26 - 27) =      5.88951  eV     2   --> E*             
     e( 28 - 28) =      6.68684  eV     1   --> A              
     e( 29 - 30) =      7.09960  eV     2   --> E              
     e( 29 - 30) =      7.09960  eV     2   --> E*             
     e( 31 - 31) =      7.33913  eV     1   --> A              
     e( 32 - 33) =      7.98749  eV     2   --> E              
     e( 32 - 33) =      7.98749  eV     2   --> E*             
     e( 34 - 35) =      8.54769  eV     2   --> E              
     e( 34 - 35) =      8.54769  eV     2   --> E*             
     e( 36 - 36) =      9.17650  eV     1   --> A              
     e( 37 - 38) =      9.45038  eV     2   --> E              
     e( 37 - 38) =      9.45038  eV     2   --> E*             
     e( 39 - 39) =      9.58425  eV     1   --> A              
     e( 40 - 41) =      9.95233  eV     2   --> E              
     e( 40 - 41) =      9.95233  eV     2   --> E*             
     e( 42 - 42) =     10.09408  eV     1   --> A              
     e( 43 - 44) =     10.77898  eV     2   --> E              
     e( 43 - 44) =     10.77898  eV     2   --> E*             
     e( 45 - 45) =     12.05874  eV     1   --> A              
     e( 46 - 47) =     12.08633  eV     2   --> E              
     e( 46 - 47) =     12.08633  eV     2   --> E*             
     e( 48 - 48) =     12.13476  eV     1   --> A              
     e( 49 - 50) =     12.16939  eV     2   --> E              
     e( 49 - 50) =     12.16939  eV     2   --> E*             
     e( 51 - 52) =     12.45674  eV     2   --> E              
     e( 51 - 52) =     12.45674  eV     2   --> E*             
     e( 53 - 53) =     12.57946  eV     1   --> A              
     e( 54 - 55) =     12.61416  eV     2   --> E              
     e( 54 - 55) =     12.61416  eV     2   --> E*             
     e( 56 - 56) =     12.79690  eV     1   --> A              
     e( 57 - 57) =     14.20098  eV     1   --> A              
     e( 58 - 59) =     14.59002  eV     2   --> E              
     e( 58 - 59) =     14.59002  eV     2   --> E*             
     e( 60 - 60) =     14.83413  eV     1   --> A              
     e( 61 - 61) =     15.12718  eV     1   --> A              
     e( 62 - 63) =     15.19657  eV     2   --> E              
     e( 62 - 63) =     15.19657  eV     2   --> E*             
     e( 64 - 65) =     15.70658  eV     2   --> E              
     e( 64 - 65) =     15.70658  eV     2   --> E*             
     e( 66 - 66) =     16.00401  eV     1   --> A              
     e( 67 - 68) =     16.28567  eV     2   --> E              
     e( 67 - 68) =     16.28567  eV     2   --> E*             

 **************************************************************************

 **************************************************************************

                    xk=(   0.22500,   0.22500,   0.22500  )

     Band symmetry, C_3 (3)     point group:

     e(  1 -  1) =    -73.42612  eV     1   --> A              
     e(  2 -  4) =    -73.42594  eV     3   --> A              
     e(  2 -  4) =    -73.42594  eV     3   --> E              
     e(  2 -  4) =    -73.42594  eV     3   --> E*             
     e(  5 -  5) =    -39.60651  eV     1   -->   ?
     e(  6 -  7) =    -39.60591  eV     2   -->   ?
     e(  8 -  8) =    -39.60487  eV     1   -->   ?
     e(  9 - 10) =    -39.60470  eV     2   -->   ?
     e( 11 - 12) =    -39.60394  eV     2   -->   ?
     e( 13 - 13) =    -39.35516  eV     1   --> A              
     e( 14 - 16) =    -39.35491  eV     3   --> A              
     e( 14 - 16) =    -39.35491  eV     3   --> E              
     e( 14 - 16) =    -39.35491  eV     3   --> E*             
     e( 17 - 17) =     -3.56486  eV     1   --> A              
     e( 18 - 18) =     -2.21301  eV     1   --> A              
     e( 19 - 20) =     -2.19045  eV     2   --> E              
     e( 19 - 20) =     -2.19045  eV     2   --> E*             
     e( 21 - 22) =      0.55232  eV     2   --> E              
     e( 21 - 22) =      0.55232  eV     2   --> E*             
     e( 23 - 23) =      0.88386  eV     1   --> A              
     e( 24 - 24) =      1.20816  eV     1   --> A              
     e( 25 - 25) =      5.58194  eV     1   --> A              
     e( 26 - 27) =      5.87280  eV     2   --> E              
     e( 26 - 27) =      5.87280  eV     2   --> E*             
     e( 28 - 28) =      6.80324  eV     1   --> A              
     e( 29 - 30) =      7.09947  eV     2   --> E              
     e( 29 - 30) =      7.09947  eV     2   --> E*             
     e( 31 - 31) =      7.28036  eV     1   --> A              
     e( 32 - 33) =      7.87219  eV     2   --> E              
     e( 32 - 33) =      7.87219  eV     2   --> E*             
     e( 34 - 35) =      8.56932  eV     2   --> E              
     e( 34 - 35) =      8.56932  eV     2   --> E*             
     e( 36 - 36) =      9.09016  eV     1   --> A              
     e( 37 - 38) =      9.34421  eV     2   --> E              
     e( 37 - 38) =      9.34421  eV     2   --> E*             
     e( 39 - 39) =      9.61692  eV     1   --> A              
     e( 40 - 41) =      9.87923  eV     2   --> E              
     e( 40 - 41) =      9.87923  eV     2   --> E*             
     e( 42 - 42) =     10.03627  eV     1   --> A              
     e( 43 - 44) =     10.76274  eV     2   --> E              
     e( 43 - 44) =     10.76274  eV     2   --> E*             
     e( 45 - 45) =     12.01589  eV     1   --> A              
     e( 46 - 47) =     12.12123  eV     2   --> E              
     e( 46 - 47) =     12.12123  eV     2   --> E*             
     e( 48 - 48) =     12.18366  eV     1   -->   ?
     e( 49 - 50) =     12.18386  eV     2   -->   ?
     e( 51 - 52) =     12.46325  eV     2   --> E              
     e( 51 - 52) =     12.46325  eV     2   --> E*             
     e( 53 - 54) =     12.58602  eV     2   --> E              
     e( 53 - 54) =     12.58602  eV     2   --> E*             
     e( 55 - 55) =     12.59682  eV     1   --> A              
     e( 56 - 56) =     12.80942  eV     1   --> A              
     e( 57 - 57) =     14.16188  eV     1   --> A              
     e( 58 - 59) =     14.51456  eV     2   --> E              
     e( 58 - 59) =     14.51456  eV     2   --> E*             
     e( 60 - 60) =     14.80683  eV     1   --> A              
     e( 61 - 61) =     15.08777  eV     1   --> A              
     e( 62 - 63) =     15.34229  eV     2   --> E              
     e( 62 - 63) =     15.34229  eV     2   --> E*             
     e( 64 - 65) =     15.77796  eV     2   --> E              
     e( 64 - 65) =     15.77796  eV     2   --> E*             
     e( 66 - 66) =     16.10750  eV     1   --> A              
     e( 67 - 68) =     16.32205  eV     2   --> E              
     e( 67 - 68) =     16.32205  eV     2   --> E*             

 **************************************************************************

 **************************************************************************

                    xk=(   0.20000,   0.20000,   0.20000  )

     Band symmetry, C_3 (3)     point group:

     e(  1 -  1) =    -73.42610  eV     1   --> A              
     e(  2 -  4) =    -73.42594  eV     3   --> A              
     e(  2 -  4) =    -73.42594  eV     3   --> E              
     e(  2 -  4) =    -73.42594  eV     3   --> E*             
     e(  5 -  5) =    -39.60650  eV     1   -->   ?
     e(  6 -  7) =    -39.60598  eV     2   -->   ?
     e(  8 -  9) =    -39.60477  eV     2   -->   ?
     e( 10 - 10) =    -39.60451  eV     1   -->   ?
     e( 11 - 12) =    -39.60394  eV     2   -->   ?
     e( 13 - 13) =    -39.35521  eV     1   --> A              
     e( 14 - 15) =    -39.35489  eV     2   --> E              
     e( 14 - 15) =    -39.35489  eV     2   --> E*             
     e( 16 - 16) =    -39.35477  eV     1   --> A              
     e( 17 - 17) =     -3.67529  eV     1   --> A              
     e( 18 - 18) =     -2.18058  eV     1   --> A              
     e( 19 - 20) =     -2.15903  eV     2   --> E              
     e( 19 - 20) =     -2.15903  eV     2   --> E*             
     e( 21 - 22) =      0.57060  eV     2   --> E              
     e( 21 - 22) =      0.57060  eV     2   --> E*             
     e( 23 - 23) =      0.85922  eV     1   --> A              
     e( 24 - 24) =      1.34614  eV     1   --> A              
     e( 25 - 25) =      5.64818  eV     1   --> A              
     e( 26 - 27) =      5.87805  eV     2   --> E              
     e( 26 - 27) =      5.87805  eV     2   --> E*             
     e( 28 - 28) =      6.94070  eV     1   --> A              
     e( 29 - 30) =      7.09765  eV     2   --> E              
     e( 29 - 30) =      7.09765  eV     2   --> E*             
     e( 31 - 31) =      7.21748  eV     1   --> A              
     e( 32 - 33) =      7.76110  eV     2   --> E              
     e( 32 - 33) =      7.76110  eV     2   --> E*             
     e( 34 - 35) =      8.60178  eV     2   --> E              
     e( 34 - 35) =      8.60178  eV     2   --> E*             
     e( 36 - 36) =      9.00576  eV     1   --> A              
     e( 37 - 38) =      9.24613  eV     2   --> E              
     e( 37 - 38) =      9.24613  eV     2   --> E*             
     e( 39 - 39) =      9.53116  eV     1   --> A              
     e( 40 - 41) =      9.78817  eV     2   --> E              
     e( 40 - 41) =      9.78817  eV     2   --> E*             
     e( 42 - 42) =     10.06267  eV     1   --> A              
     e( 43 - 44) =     10.73273  eV     2   --> E              
     e( 43 - 44) =     10.73273  eV     2   --> E*             
     e( 45 - 45) =     11.98318  eV     1   --> A              
     e( 46 - 47) =     12.13581  eV     2   --> E              
     e( 46 - 47) =     12.13581  eV     2   --> E*             
     e( 48 - 49) =     12.19738  eV     2   --> E              
     e( 48 - 49) =     12.19738  eV     2   --> E*             
     e( 50 - 50) =     12.23302  eV     1   --> A              
     e( 51 - 52) =     12.46005  eV     2   --> E              
     e( 51 - 52) =     12.46005  eV     2   --> E*             
     e( 53 - 54) =     12.56111  eV     2   --> E              
     e( 53 - 54) =     12.56111  eV     2   --> E*             
     e( 55 - 55) =     12.60020  eV     1   --> A              
     e( 56 - 56) =     12.81489  eV     1   --> A              
     e( 57 - 57) =     14.11231  eV     1   --> A              
     e( 58 - 59) =     14.45888  eV     2   --> E              
     e( 58 - 59) =     14.45888  eV     2   --> E*             
     e( 60 - 60) =     14.72741  eV     1   --> A              
     e( 61 - 61) =     15.13803  eV     1   --> A              
     e( 62 - 63) =     15.49430  eV     2   --> E              
     e( 62 - 63) =     15.49430  eV     2   --> E*             
     e( 64 - 65) =     15.85054  eV     2   --> E              
     e( 64 - 65) =     15.85054  eV     2   --> E*             
     e( 66 - 66) =     16.19936  eV     1   --> A              
     e( 67 - 68) =     16.35656  eV     2   --> E              
     e( 67 - 68) =     16.35656  eV     2   --> E*             

 **************************************************************************

 **************************************************************************

                    xk=(   0.17500,   0.17500,   0.17500  )

     Band symmetry, C_3 (3)     point group:

     e(  1 -  1) =    -73.42618  eV     1   --> A              
     e(  2 -  4) =    -73.42592  eV     3   --> A              
     e(  2 -  4) =    -73.42592  eV     3   --> E              
     e(  2 -  4) =    -73.42592  eV     3   --> E*             
     e(  5 -  5) =    -39.60649  eV     1   -->   ?
     e(  6 -  7) =    -39.60601  eV     2   -->   ?
     e(  8 -  9) =    -39.60474  eV     2   -->   ?
     e( 10 - 10) =    -39.60449  eV     1   -->   ?
     e( 11 - 12) =    -39.60401  eV     2   -->   ?
     e( 13 - 13) =    -39.35523  eV     1   --> A              
     e( 14 - 15) =    -39.35490  eV     2   --> E              
     e( 14 - 15) =    -39.35490  eV     2   --> E*             
     e( 16 - 16) =    -39.35479  eV     1   --> A              
     e( 17 - 17) =     -3.77488  eV     1   --> A              
     e( 18 - 18) =     -2.14646  eV     1   --> A              
     e( 19 - 20) =     -2.12689  eV     2   --> E              
     e( 19 - 20) =     -2.12689  eV     2   --> E*             
     e( 21 - 22) =      0.58113  eV     2   --> E              
     e( 21 - 22) =      0.58113  eV     2   --> E*             
     e( 23 - 23) =      0.81943  eV     1   --> A              
     e( 24 - 24) =      1.48049  eV     1   --> A              
     e( 25 - 25) =      5.72936  eV     1   --> A              
     e( 26 - 27) =      5.90466  eV     2   --> E              
     e( 26 - 27) =      5.90466  eV     2   --> E*             
     e( 28 - 28) =      7.08001  eV     1   --> A              
     e( 29 - 30) =      7.09201  eV     2   --> E              
     e( 29 - 30) =      7.09201  eV     2   --> E*             
     e( 31 - 31) =      7.17109  eV     1   --> A              
     e( 32 - 33) =      7.66486  eV     2   --> E              
     e( 32 - 33) =      7.66486  eV     2   --> E*             
     e( 34 - 35) =      8.63224  eV     2   --> E              
     e( 34 - 35) =      8.63224  eV     2   --> E*             
     e( 36 - 36) =      8.91974  eV     1   --> A              
     e( 37 - 38) =      9.16235  eV     2   --> E              
     e( 37 - 38) =      9.16235  eV     2   --> E*             
     e( 39 - 39) =      9.38353  eV     1   --> A              
     e( 40 - 41) =      9.68194  eV     2   --> E              
     e( 40 - 41) =      9.68194  eV     2   --> E*             
     e( 42 - 42) =     10.12335  eV     1   --> A              
     e( 43 - 44) =     10.68924  eV     2   --> E              
     e( 43 - 44) =     10.68924  eV     2   --> E*             
     e( 45 - 45) =     11.95896  eV     1   --> A              
     e( 46 - 47) =     12.11230  eV     2   --> E              
     e( 46 - 47) =     12.11230  eV     2   --> E*             
     e( 48 - 49) =     12.22196  eV     2   --> E              
     e( 48 - 49) =     12.22196  eV     2   --> E*             
     e( 50 - 50) =     12.28266  eV     1   --> A              
     e( 51 - 52) =     12.45629  eV     2   --> E              
     e( 51 - 52) =     12.45629  eV     2   --> E*             
     e( 53 - 54) =     12.54369  eV     2   --> E              
     e( 53 - 54) =     12.54369  eV     2   --> E*             
     e( 55 - 55) =     12.59122  eV     1   --> A              
     e( 56 - 56) =     12.81355  eV     1   --> A              
     e( 57 - 57) =     14.05170  eV     1   --> A              
     e( 58 - 59) =     14.42300  eV     2   --> E              
     e( 58 - 59) =     14.42300  eV     2   --> E*             
     e( 60 - 60) =     14.63516  eV     1   --> A              
     e( 61 - 61) =     15.24164  eV     1   --> A              
     e( 62 - 63) =     15.64452  eV     2   --> E              
     e( 62 - 63) =     15.64452  eV     2   --> E*             
     e( 64 - 65) =     15.92755  eV     2   --> E              
     e( 64 - 65) =     15.92755  eV     2   --> E*             
     e( 66 - 66) =     16.26756  eV     1   --> A              
     e( 67 - 68) =     16.38748  eV     2   --> E              
     e( 67 - 68) =     16.38748  eV     2   --> E*             

 **************************************************************************

 **************************************************************************

                    xk=(   0.15000,   0.15000,   0.15000  )

     Band symmetry, C_3 (3)     point group:

     e(  1 -  1) =    -73.42621  eV     1   --> A              
     e(  2 -  4) =    -73.42591  eV     3   --> A              
     e(  2 -  4) =    -73.42591  eV     3   --> E              
     e(  2 -  4) =    -73.42591  eV     3   --> E*             
     e(  5 -  5) =    -39.60651  eV     1   -->   ?
     e(  6 -  7) =    -39.60609  eV     2   -->   ?
     e(  8 -  9) =    -39.60471  eV     2   -->   ?
     e( 10 - 10) =    -39.60437  eV     1   -->   ?
     e( 11 - 12) =    -39.60401  eV     2   -->   ?
     e( 13 - 13) =    -39.35525  eV     1   --> A              
     e( 14 - 16) =    -39.35489  eV     3   --> A              
     e( 14 - 16) =    -39.35489  eV     3   --> E              
     e( 14 - 16) =    -39.35489  eV     3   --> E*             
     e( 17 - 17) =     -3.86270  eV     1   --> A              
     e( 18 - 18) =     -2.11183  eV     1   --> A              
     e( 19 - 20) =     -2.09511  eV     2   --> E              
     e( 19 - 20) =     -2.09511  eV     2   --> E*             
     e( 21 - 22) =      0.58455  eV     2   --> E              
     e( 21 - 22) =      0.58455  eV     2   --> E*             
     e( 23 - 23) =      0.77016  eV     1   --> A              
     e( 24 - 24) =      1.60740  eV     1   --> A              
     e( 25 - 25) =      5.82059  eV     1   --> A              
     e( 26 - 27) =      5.94987  eV     2   --> E              
     e( 26 - 27) =      5.94987  eV     2   --> E*             
     e( 28 - 28) =      7.07205  eV     1   --> A              
     e( 29 - 30) =      7.08055  eV     2   --> E              
     e( 29 - 30) =      7.08055  eV     2   --> E*             
     e( 31 - 31) =      7.28929  eV     1   --> A              
     e( 32 - 33) =      7.59241  eV     2   --> E              
     e( 32 - 33) =      7.59241  eV     2   --> E*             
     e( 34 - 35) =      8.63947  eV     2   --> E              
     e( 34 - 35) =      8.63947  eV     2   --> E*             
     e( 36 - 36) =      8.81297  eV     1   --> A              
     e( 37 - 38) =      9.10547  eV     2   --> E              
     e( 37 - 38) =      9.10547  eV     2   --> E*             
     e( 39 - 39) =      9.23863  eV     1   --> A              
     e( 40 - 41) =      9.56907  eV     2   --> E              
     e( 40 - 41) =      9.56907  eV     2   --> E*             
     e( 42 - 42) =     10.18065  eV     1   --> A              
     e( 43 - 44) =     10.63392  eV     2   --> E              
     e( 43 - 44) =     10.63392  eV     2   --> E*             
     e( 45 - 45) =     11.93768  eV     1   --> A              
     e( 46 - 47) =     12.05936  eV     2   --> E              
     e( 46 - 47) =     12.05936  eV     2   --> E*             
     e( 48 - 49) =     12.25162  eV     2   --> E              
     e( 48 - 49) =     12.25162  eV     2   --> E*             
     e( 50 - 50) =     12.33169  eV     1   --> A              
     e( 51 - 52) =     12.45898  eV     2   --> E              
     e( 51 - 52) =     12.45898  eV     2   --> E*             
     e( 53 - 54) =     12.53176  eV     2   --> E              
     e( 53 - 54) =     12.53176  eV     2   --> E*             
     e( 55 - 55) =     12.57333  eV     1   --> A              
     e( 56 - 56) =     12.80715  eV     1   --> A              
     e( 57 - 57) =     13.97777  eV     1   --> A              
     e( 58 - 59) =     14.40400  eV     2   --> E              
     e( 58 - 59) =     14.40400  eV     2   --> E*             
     e( 60 - 60) =     14.55343  eV     1   --> A              
     e( 61 - 61) =     15.37460  eV     1   --> A              
     e( 62 - 63) =     15.77882  eV     2   --> E              
     e( 62 - 63) =     15.77882  eV     2   --> E*             
     e( 64 - 65) =     16.01494  eV     2   --> E              
     e( 64 - 65) =     16.01494  eV     2   --> E*             
     e( 66 - 66) =     16.30819  eV     1   --> A              
     e( 67 - 68) =     16.41738  eV     2   --> E              
     e( 67 - 68) =     16.41738  eV     2   --> E*             

 **************************************************************************

 **************************************************************************

                    xk=(   0.12500,   0.12500,   0.12500  )

     Band symmetry, C_3 (3)     point group:

     e(  1 -  1) =    -73.42622  eV     1   --> A              
     e(  2 -  4) =    -73.42592  eV     3   --> A              
     e(  2 -  4) =    -73.42592  eV     3   --> E              
     e(  2 -  4) =    -73.42592  eV     3   --> E*             
     e(  5 -  5) =    -39.60652  eV     1   -->   ?
     e(  6 -  7) =    -39.60622  eV     2   -->   ?
     e(  8 -  9) =    -39.60473  eV     2   -->   ?
     e( 10 - 10) =    -39.60424  eV     1   -->   ?
     e( 11 - 12) =    -39.60402  eV     2   -->   ?
     e( 13 - 13) =    -39.35531  eV     1   --> A              
     e( 14 - 16) =    -39.35489  eV     3   --> A              
     e( 14 - 16) =    -39.35489  eV     3   --> E              
     e( 14 - 16) =    -39.35489  eV     3   --> E*             
     e( 17 - 17) =     -3.93807  eV     1   --> A              
     e( 18 - 18) =     -2.07817  eV     1   --> A              
     e( 19 - 20) =     -2.06492  eV     2   --> E              
     e( 19 - 20) =     -2.06492  eV     2   --> E*             
     e( 21 - 22) =      0.58222  eV     2   --> E              
     e( 21 - 22) =      0.58222  eV     2   --> E*             
     e( 23 - 23) =      0.71703  eV     1   --> A              
     e( 24 - 24) =      1.72306  eV     1   --> A              
     e( 25 - 25) =      5.91719  eV     1   --> A              
     e( 26 - 27) =      6.00874  eV     2   --> E              
     e( 26 - 27) =      6.00874  eV     2   --> E*             
     e( 28 - 28) =      7.02164  eV     1   --> A              
     e( 29 - 30) =      7.06222  eV     2   --> E              
     e( 29 - 30) =      7.06222  eV     2   --> E*             
     e( 31 - 31) =      7.46358  eV     1   --> A              
     e( 32 - 33) =      7.55119  eV     2   --> E              
     e( 32 - 33) =      7.55119  eV     2   --> E*             
     e( 34 - 35) =      8.59794  eV     2   --> E              
     e( 34 - 35) =      8.59794  eV     2   --> E*             
     e( 36 - 36) =      8.66435  eV     1   --> A              
     e( 37 - 38) =      9.08874  eV     2   --> E              
     e( 37 - 38) =      9.08874  eV     2   --> E*             
     e( 39 - 39) =      9.13728  eV     1   --> A              
     e( 40 - 41) =      9.46398  eV     2   --> E              
     e( 40 - 41) =      9.46398  eV     2   --> E*             
     e( 42 - 42) =     10.22548  eV     1   --> A              
     e( 43 - 44) =     10.56912  eV     2   --> E              
     e( 43 - 44) =     10.56912  eV     2   --> E*             
     e( 45 - 45) =     11.91334  eV     1   --> A              
     e( 46 - 47) =     11.99268  eV     2   --> E              
     e( 46 - 47) =     11.99268  eV     2   --> E*             
     e( 48 - 49) =     12.28062  eV     2   --> E              
     e( 48 - 49) =     12.28062  eV     2   --> E*             
     e( 50 - 50) =     12.37828  eV     1   --> A              
     e( 51 - 52) =     12.46759  eV     2   --> E              
     e( 51 - 52) =     12.46759  eV     2   --> E*             
     e( 53 - 54) =     12.52286  eV     2   --> E              
     e( 53 - 54) =     12.52286  eV     2   --> E*             
     e( 55 - 55) =     12.55166  eV     1   --> A              
     e( 56 - 56) =     12.79829  eV     1   --> A              
     e( 57 - 57) =     13.88844  eV     1   --> A              
     e( 58 - 59) =     14.39755  eV     2   --> E              
     e( 58 - 59) =     14.39755  eV     2   --> E*             
     e( 60 - 60) =     14.49193  eV     1   --> A              
     e( 61 - 61) =     15.52343  eV     1   --> A              
     e( 62 - 63) =     15.88310  eV     2   --> E              
     e( 62 - 63) =     15.88310  eV     2   --> E*             
     e( 64 - 65) =     16.11038  eV     2   --> E              
     e( 64 - 65) =     16.11038  eV     2   --> E*             
     e( 66 - 66) =     16.32412  eV     1   --> A              
     e( 67 - 68) =     16.45658  eV     2   --> E              
     e( 67 - 68) =     16.45658  eV     2   --> E*             

 **************************************************************************

 **************************************************************************

                    xk=(   0.10000,   0.10000,   0.10000  )

     Band symmetry, C_3 (3)     point group:

     e(  1 -  1) =    -73.42623  eV     1   --> A              
     e(  2 -  4) =    -73.42593  eV     3   --> A              
     e(  2 -  4) =    -73.42593  eV     3   --> E              
     e(  2 -  4) =    -73.42593  eV     3   --> E*             
     e(  5 -  5) =    -39.60660  eV     1   -->   ?
     e(  6 -  7) =    -39.60637  eV     2   -->   ?
     e(  8 -  9) =    -39.60473  eV     2   -->   ?
     e( 10 - 12) =    -39.60411  eV     3   -->   ?
     e( 13 - 13) =    -39.35535  eV     1   --> A              
     e( 14 - 16) =    -39.35492  eV     3   --> A              
     e( 14 - 16) =    -39.35492  eV     3   --> E              
     e( 14 - 16) =    -39.35492  eV     3   --> E*             
     e( 17 - 17) =     -4.00042  eV     1   --> A              
     e( 18 - 18) =     -2.04712  eV     1   --> A              
     e( 19 - 20) =     -2.03764  eV     2   --> E              
     e( 19 - 20) =     -2.03764  eV     2   --> E*             
     e( 21 - 22) =      0.57605  eV     2   --> E              
     e( 21 - 22) =      0.57605  eV     2   --> E*             
     e( 23 - 23) =      0.66531  eV     1   --> A              
     e( 24 - 24) =      1.82380  eV     1   --> A              
     e( 25 - 25) =      6.01362  eV     1   --> A              
     e( 26 - 27) =      6.07420  eV     2   --> E              
     e( 26 - 27) =      6.07420  eV     2   --> E*             
     e( 28 - 28) =      6.98227  eV     1   --> A              
     e( 29 - 30) =      7.03854  eV     2   --> E              
     e( 29 - 30) =      7.03854  eV     2   --> E*             
     e( 31 - 32) =      7.54588  eV     2   --> E              
     e( 31 - 32) =      7.54588  eV     2   --> E*             
     e( 33 - 33) =      7.63409  eV     1   --> A              
     e( 34 - 34) =      8.48124  eV     1   --> A              
     e( 35 - 36) =      8.50155  eV     2   --> E              
     e( 35 - 36) =      8.50155  eV     2   --> E*             
     e( 37 - 37) =      9.08472  eV     1   --> A              
     e( 38 - 39) =      9.10100  eV     2   --> E              
     e( 38 - 39) =      9.10100  eV     2   --> E*             
     e( 40 - 41) =      9.38712  eV     2   --> E              
     e( 40 - 41) =      9.38712  eV     2   --> E*             
     e( 42 - 42) =     10.25729  eV     1   --> A              
     e( 43 - 44) =     10.49802  eV     2   --> E              
     e( 43 - 44) =     10.49802  eV     2   --> E*             
     e( 45 - 45) =     11.88287  eV     1   --> A              
     e( 46 - 47) =     11.92507  eV     2   --> E              
     e( 46 - 47) =     11.92507  eV     2   --> E*             
     e( 48 - 49) =     12.30668  eV     2   --> E              
     e( 48 - 49) =     12.30668  eV     2   --> E*             
     e( 50 - 50) =     12.41998  eV     1   --> A              
     e( 51 - 52) =     12.47852  eV     2   --> E              
     e( 51 - 52) =     12.47852  eV     2   --> E*             
     e( 53 - 54) =     12.51612  eV     2   --> E              
     e( 53 - 54) =     12.51612  eV     2   --> E*             
     e( 55 - 55) =     12.53200  eV     1   --> A              
     e( 56 - 56) =     12.78934  eV     1   --> A              
     e( 57 - 57) =     13.78704  eV     1   --> A              
     e( 58 - 59) =     14.39894  eV     2   --> E              
     e( 58 - 59) =     14.39894  eV     2   --> E*             
     e( 60 - 60) =     14.45242  eV     1   --> A              
     e( 61 - 61) =     15.67677  eV     1   --> A              
     e( 62 - 63) =     15.95913  eV     2   --> E              
     e( 62 - 63) =     15.95913  eV     2   --> E*             
     e( 64 - 65) =     16.18665  eV     2   --> E              
     e( 64 - 65) =     16.18665  eV     2   --> E*             
     e( 66 - 66) =     16.32133  eV     1   --> A              
     e( 67 - 68) =     16.52373  eV     2   --> E              
     e( 67 - 68) =     16.52373  eV     2   --> E*             

 **************************************************************************

 **************************************************************************

                    xk=(   0.07500,   0.07500,   0.07500  )

     Band symmetry, C_3 (3)     point group:

     e(  1 -  1) =    -73.42628  eV     1   --> A              
     e(  2 -  4) =    -73.42592  eV     3   --> A              
     e(  2 -  4) =    -73.42592  eV     3   --> E              
     e(  2 -  4) =    -73.42592  eV     3   --> E*             
     e(  5 -  5) =    -39.60658  eV     1   -->   ?
     e(  6 -  7) =    -39.60643  eV     2   -->   ?
     e(  8 -  9) =    -39.60473  eV     2   --> E              
     e(  8 -  9) =    -39.60473  eV     2   --> E*             
     e( 10 - 12) =    -39.60415  eV     3   -->   ?
     e( 13 - 13) =    -39.35540  eV     1   --> A              
     e( 14 - 16) =    -39.35492  eV     3   --> A              
     e( 14 - 16) =    -39.35492  eV     3   --> E              
     e( 14 - 16) =    -39.35492  eV     3   --> E*             
     e( 17 - 17) =     -4.04932  eV     1   --> A              
     e( 18 - 18) =     -2.02046  eV     1   --> A              
     e( 19 - 20) =     -2.01463  eV     2   --> E              
     e( 19 - 20) =     -2.01463  eV     2   --> E*             
     e( 21 - 22) =      0.56818  eV     2   --> E              
     e( 21 - 22) =      0.56818  eV     2   --> E*             
     e( 23 - 23) =      0.61966  eV     1   --> A              
     e( 24 - 24) =      1.90621  eV     1   --> A              
     e( 25 - 25) =      6.10242  eV     1   --> A              
     e( 26 - 27) =      6.13763  eV     2   --> E              
     e( 26 - 27) =      6.13763  eV     2   --> E*             
     e( 28 - 28) =      6.96073  eV     1   --> A              
     e( 29 - 30) =      7.01387  eV     2   --> E              
     e( 29 - 30) =      7.01387  eV     2   --> E*             
     e( 31 - 32) =      7.57778  eV     2   --> E              
     e( 31 - 32) =      7.57778  eV     2   --> E*             
     e( 33 - 33) =      7.78512  eV     1   --> A              
     e( 34 - 34) =      8.29231  eV     1   --> A              
     e( 35 - 36) =      8.36595  eV     2   --> E              
     e( 35 - 36) =      8.36595  eV     2   --> E*             
     e( 37 - 37) =      9.06421  eV     1   --> A              
     e( 38 - 39) =      9.10669  eV     2   --> E              
     e( 38 - 39) =      9.10669  eV     2   --> E*             
     e( 40 - 41) =      9.36120  eV     2   --> E              
     e( 40 - 41) =      9.36120  eV     2   --> E*             
     e( 42 - 42) =     10.27743  eV     1   --> A              
     e( 43 - 44) =     10.42553  eV     2   --> E              
     e( 43 - 44) =     10.42553  eV     2   --> E*             
     e( 45 - 45) =     11.84792  eV     1   --> A              
     e( 46 - 47) =     11.86548  eV     2   --> E              
     e( 46 - 47) =     11.86548  eV     2   --> E*             
     e( 48 - 49) =     12.32832  eV     2   --> E              
     e( 48 - 49) =     12.32832  eV     2   --> E*             
     e( 50 - 50) =     12.45464  eV     1   --> A              
     e( 51 - 52) =     12.48894  eV     2   --> E              
     e( 51 - 52) =     12.48894  eV     2   --> E*             
     e( 53 - 54) =     12.51137  eV     2   --> E              
     e( 53 - 54) =     12.51137  eV     2   --> E*             
     e( 55 - 55) =     12.51834  eV     1   --> A              
     e( 56 - 56) =     12.78173  eV     1   --> A              
     e( 57 - 57) =     13.68426  eV     1   --> A              
     e( 58 - 59) =     14.40420  eV     2   --> E              
     e( 58 - 59) =     14.40420  eV     2   --> E*             
     e( 60 - 60) =     14.43083  eV     1   --> A              
     e( 61 - 61) =     15.82377  eV     1   --> A              
     e( 62 - 63) =     16.01733  eV     2   --> E              
     e( 62 - 63) =     16.01733  eV     2   --> E*             
     e( 64 - 65) =     16.22125  eV     2   --> E              
     e( 64 - 65) =     16.22125  eV     2   --> E*             
     e( 66 - 66) =     16.30479  eV     1   --> A              
     e( 67 - 68) =     16.62198  eV     2   --> E              
     e( 67 - 68) =     16.62198  eV     2   --> E*             

 **************************************************************************

 **************************************************************************

                    xk=(   0.05000,   0.05000,   0.05000  )

     Band symmetry, C_3 (3)     point group:

     e(  1 -  1) =    -73.42629  eV     1   --> A              
     e(  2 -  4) =    -73.42593  eV     3   --> A              
     e(  2 -  4) =    -73.42593  eV     3   --> E              
     e(  2 -  4) =    -73.42593  eV     3   --> E*             
     e(  5 -  5) =    -39.60659  eV     1   -->   ?
     e(  6 -  7) =    -39.60648  eV     2   -->   ?
     e(  8 -  9) =    -39.60477  eV     2   --> E              
     e(  8 -  9) =    -39.60477  eV     2   --> E*             
     e( 10 - 12) =    -39.60410  eV     3   --> A              
     e( 10 - 12) =    -39.60410  eV     3   --> E              
     e( 10 - 12) =    -39.60410  eV     3   --> E*             
     e( 13 - 13) =    -39.35547  eV     1   --> A              
     e( 14 - 16) =    -39.35492  eV     3   --> A              
     e( 14 - 16) =    -39.35492  eV     3   --> E              
     e( 14 - 16) =    -39.35492  eV     3   --> E*             
     e( 17 - 17) =     -4.08446  eV     1   --> A              
     e( 18 - 18) =     -1.99991  eV     1   --> A              
     e( 19 - 20) =     -1.99714  eV     2   --> E              
     e( 19 - 20) =     -1.99714  eV     2   --> E*             
     e( 21 - 22) =      0.56074  eV     2   --> E              
     e( 21 - 22) =      0.56074  eV     2   --> E*             
     e( 23 - 23) =      0.58402  eV     1   --> A              
     e( 24 - 24) =      1.96737  eV     1   --> A              
     e( 25 - 25) =      6.17434  eV     1   --> A              
     e( 26 - 27) =      6.19021  eV     2   --> E              
     e( 26 - 27) =      6.19021  eV     2   --> E*             
     e( 28 - 28) =      6.95851  eV     1   --> A              
     e( 29 - 30) =      6.99313  eV     2   --> E              
     e( 29 - 30) =      6.99313  eV     2   --> E*             
     e( 31 - 32) =      7.64556  eV     2   --> E              
     e( 31 - 32) =      7.64556  eV     2   --> E*             
     e( 33 - 33) =      7.90223  eV     1   --> A              
     e( 34 - 34) =      8.12624  eV     1   --> A              
     e( 35 - 36) =      8.21024  eV     2   --> E              
     e( 35 - 36) =      8.21024  eV     2   --> E*             
     e( 37 - 37) =      9.06122  eV     1   --> A              
     e( 38 - 39) =      9.09175  eV     2   --> E              
     e( 38 - 39) =      9.09175  eV     2   --> E*             
     e( 40 - 41) =      9.38254  eV     2   --> E              
     e( 40 - 41) =      9.38254  eV     2   --> E*             
     e( 42 - 42) =     10.28815  eV     1   --> A              
     e( 43 - 44) =     10.35954  eV     2   --> E              
     e( 43 - 44) =     10.35954  eV     2   --> E*             
     e( 45 - 45) =     11.81451  eV     1   --> A              
     e( 46 - 47) =     11.81970  eV     2   --> E              
     e( 46 - 47) =     11.81970  eV     2   --> E*             
     e( 48 - 49) =     12.34441  eV     2   --> E              
     e( 48 - 49) =     12.34441  eV     2   --> E*             
     e( 50 - 50) =     12.48039  eV     1   --> A              
     e( 51 - 52) =     12.49669  eV     2   --> E              
     e( 51 - 52) =     12.49669  eV     2   --> E*             
     e( 53 - 54) =     12.50878  eV     2   -->   ?
     e( 55 - 55) =     12.51139  eV     1   -->   ?
     e( 56 - 56) =     12.77606  eV     1   --> A              
     e( 57 - 57) =     13.59506  eV     1   --> A              
     e( 58 - 59) =     14.41015  eV     2   --> E              
     e( 58 - 59) =     14.41015  eV     2   --> E*             
     e( 60 - 60) =     14.42086  eV     1   --> A              
     e( 61 - 61) =     15.95447  eV     1   --> A              
     e( 62 - 63) =     16.06371  eV     2   --> E              
     e( 62 - 63) =     16.06371  eV     2   --> E*             
[...]
     e( 36 - 36) =      8.49474  eV     1   --> A''            
     e( 37 - 37) =      9.01271  eV     1   --> A''            
     e( 38 - 38) =      9.07861  eV     1   --> A'             
     e( 39 - 39) =      9.20280  eV     1   --> A''            
     e( 40 - 40) =      9.31706  eV     1   --> A'             
     e( 41 - 41) =      9.41257  eV     1   --> A'             
     e( 42 - 42) =     10.21161  eV     1   --> A''            
     e( 43 - 43) =     10.37014  eV     1   --> A'             
     e( 44 - 44) =     10.56214  eV     1   --> A'             
     e( 45 - 45) =     11.83969  eV     1   --> A''            
     e( 46 - 46) =     11.85492  eV     1   --> A''            
     e( 47 - 47) =     11.92067  eV     1   --> A'             
     e( 48 - 48) =     12.29861  eV     1   --> A'             
     e( 49 - 49) =     12.34777  eV     1   --> A'             
     e( 50 - 50) =     12.44508  eV     1   --> A''            
     e( 51 - 51) =     12.46148  eV     1   --> A'             
     e( 52 - 52) =     12.49491  eV     1   --> A''            
     e( 53 - 53) =     12.51791  eV     1   --> A'             
     e( 54 - 54) =     12.52061  eV     1   --> A''            
     e( 55 - 55) =     12.52441  eV     1   --> A''            
     e( 56 - 56) =     12.78347  eV     1   --> A'             
     e( 57 - 57) =     13.71267  eV     1   --> A''            
     e( 58 - 58) =     14.38924  eV     1   --> A'             
     e( 59 - 59) =     14.41120  eV     1   --> A''            
     e( 60 - 60) =     14.43958  eV     1   --> A''            
     e( 61 - 61) =     15.79222  eV     1   --> A'             
     e( 62 - 62) =     15.95963  eV     1   --> A''            
     e( 63 - 63) =     16.06002  eV     1   --> A'             
     e( 64 - 64) =     16.17027  eV     1   --> A''            
     e( 65 - 65) =     16.25755  eV     1   --> A'             
     e( 66 - 66) =     16.31439  eV     1   --> A''            
     e( 67 - 67) =     16.47361  eV     1   --> A'             
     e( 68 - 68) =     16.69992  eV     1   --> A'             

 **************************************************************************

 **************************************************************************

                    xk=(   0.07500,   0.07500,   0.00000  )

     Band symmetry, C_s (m)     point group:

     e(  1 -  1) =    -73.42630  eV     1   --> A'             
     e(  2 -  4) =    -73.42592  eV     3   --> A'             
     e(  2 -  4) =    -73.42592  eV     3   -->   2 A''            
     e(  5 -  6) =    -39.60657  eV     2   --> A'             
     e(  5 -  6) =    -39.60657  eV     2   --> A''            
     e(  7 -  7) =    -39.60633  eV     1   --> A'             
     e(  8 -  9) =    -39.60469  eV     2   -->   2 A''            
     e( 10 - 12) =    -39.60409  eV     3   -->   2 A'             
     e( 10 - 12) =    -39.60409  eV     3   --> A''            
     e( 13 - 13) =    -39.35540  eV     1   --> A''            
     e( 14 - 16) =    -39.35494  eV     3   -->   2 A'             
     e( 14 - 16) =    -39.35494  eV     3   --> A''            
     e( 17 - 17) =     -4.07039  eV     1   --> A'             
     e( 18 - 18) =     -2.02286  eV     1   --> A''            
     e( 19 - 19) =     -2.02232  eV     1   --> A'             
     e( 20 - 20) =     -1.97163  eV     1   --> A''            
     e( 21 - 21) =      0.55665  eV     1   --> A'             
     e( 22 - 22) =      0.57913  eV     1   --> A''            
     e( 23 - 23) =      0.59106  eV     1   --> A'             
     e( 24 - 24) =      1.94294  eV     1   --> A''            
     e( 25 - 25) =      6.13423  eV     1   --> A''            
     e( 26 - 26) =      6.14345  eV     1   --> A'             
     e( 27 - 27) =      6.21189  eV     1   --> A''            
     e( 28 - 28) =      6.88233  eV     1   --> A'             
     e( 29 - 29) =      6.99744  eV     1   --> A''            
     e( 30 - 30) =      7.07708  eV     1   --> A'             
     e( 31 - 31) =      7.49498  eV     1   --> A''            
     e( 32 - 32) =      7.76085  eV     1   --> A''            
     e( 33 - 33) =      7.85913  eV     1   --> A'             
     e( 34 - 34) =      8.13952  eV     1   --> A'             
     e( 35 - 35) =      8.23140  eV     1   --> A''            
     e( 36 - 36) =      8.34542  eV     1   --> A''            
     e( 37 - 37) =      9.03007  eV     1   --> A''            
     e( 38 - 38) =      9.09196  eV     1   --> A'             
     e( 39 - 39) =      9.14361  eV     1   --> A''            
     e( 40 - 40) =      9.33266  eV     1   --> A'             
     e( 41 - 41) =      9.40949  eV     1   --> A'             
     e( 42 - 42) =     10.24246  eV     1   --> A''            
     e( 43 - 43) =     10.34942  eV     1   --> A'             
     e( 44 - 44) =     10.45964  eV     1   --> A'             
     e( 45 - 45) =     11.81561  eV     1   --> A''            
     e( 46 - 46) =     11.82376  eV     1   --> A''            
     e( 47 - 47) =     11.86554  eV     1   --> A'             
     e( 48 - 48) =     12.32405  eV     1   --> A'             
     e( 49 - 49) =     12.35189  eV     1   --> A'             
     e( 50 - 50) =     12.47016  eV     1   --> A''            
     e( 51 - 51) =     12.47918  eV     1   --> A'             
     e( 52 - 52) =     12.49923  eV     1   --> A''            
     e( 53 - 53) =     12.51242  eV     1   --> A'             
     e( 54 - 54) =     12.51300  eV     1   --> A''            
     e( 55 - 55) =     12.51624  eV     1   --> A''            
     e( 56 - 56) =     12.77834  eV     1   --> A'             
     e( 57 - 57) =     13.63308  eV     1   --> A''            
     e( 58 - 58) =     14.40002  eV     1   --> A'             
     e( 59 - 59) =     14.41122  eV     1   --> A''            
     e( 60 - 60) =     14.42808  eV     1   --> A''            
     e( 61 - 61) =     15.90669  eV     1   --> A'             
     e( 62 - 62) =     16.00392  eV     1   --> A''            
     e( 63 - 63) =     16.08792  eV     1   --> A'             
     e( 64 - 64) =     16.18670  eV     1   --> A''            
     e( 65 - 65) =     16.25707  eV     1   --> A'             
     e( 66 - 66) =     16.29258  eV     1   --> A''            
     e( 67 - 67) =     16.60775  eV     1   --> A'             
     e( 68 - 68) =     16.74786  eV     1   --> A'             

 **************************************************************************

 **************************************************************************

                    xk=(   0.05000,   0.05000,   0.00000  )

     Band symmetry, C_s (m)     point group:

     e(  1 -  1) =    -73.42630  eV     1   --> A'             
     e(  2 -  4) =    -73.42594  eV     3   --> A'             
     e(  2 -  4) =    -73.42594  eV     3   -->   2 A''            
     e(  5 -  5) =    -39.60662  eV     1   --> A'             
     e(  6 -  7) =    -39.60651  eV     2   --> A'             
     e(  6 -  7) =    -39.60651  eV     2   --> A''            
     e(  8 -  8) =    -39.60478  eV     1   --> A''            
     e(  9 -  9) =    -39.60467  eV     1   --> A''            
     e( 10 - 12) =    -39.60411  eV     3   -->   2 A'             
     e( 10 - 12) =    -39.60411  eV     3   --> A''            
     e( 13 - 13) =    -39.35549  eV     1   --> A''            
     e( 14 - 16) =    -39.35497  eV     3   -->   2 A'             
     e( 14 - 16) =    -39.35497  eV     3   --> A''            
     e( 17 - 17) =     -4.09386  eV     1   --> A'             
     e( 18 - 18) =     -2.00079  eV     1   --> A''            
     e( 19 - 19) =     -2.00054  eV     1   --> A'             
     e( 20 - 20) =     -1.97749  eV     1   --> A''            
     e( 21 - 21) =      0.55496  eV     1   --> A'             
     e( 22 - 22) =      0.56544  eV     1   --> A''            
     e( 23 - 23) =      0.57071  eV     1   --> A'             
     e( 24 - 24) =      1.98406  eV     1   --> A''            
     e( 25 - 25) =      6.18846  eV     1   --> A''            
     e( 26 - 26) =      6.19341  eV     1   --> A'             
     e( 27 - 27) =      6.22536  eV     1   --> A''            
     e( 28 - 28) =      6.92644  eV     1   --> A'             
     e( 29 - 29) =      6.98508  eV     1   --> A''            
     e( 30 - 30) =      7.02325  eV     1   --> A'             
     e( 31 - 31) =      7.61257  eV     1   --> A''            
     e( 32 - 32) =      7.76473  eV     1   --> A''            
     e( 33 - 33) =      7.93341  eV     1   --> A'             
     e( 34 - 34) =      8.05353  eV     1   --> A'             
     e( 35 - 35) =      8.11212  eV     1   --> A''            
     e( 36 - 36) =      8.19421  eV     1   --> A''            
     e( 37 - 37) =      9.04904  eV     1   --> A''            
     e( 38 - 38) =      9.08239  eV     1   --> A'             
     e( 39 - 39) =      9.10115  eV     1   --> A''            
     e( 40 - 40) =      9.37493  eV     1   --> A'             
     e( 41 - 41) =      9.41651  eV     1   --> A'             
     e( 42 - 42) =     10.26899  eV     1   --> A''            
     e( 43 - 43) =     10.32352  eV     1   --> A'             
     e( 44 - 44) =     10.37379  eV     1   --> A'             
     e( 45 - 45) =     11.79714  eV     1   --> A''            
     e( 46 - 46) =     11.80052  eV     1   --> A''            
     e( 47 - 47) =     11.82059  eV     1   --> A'             
     e( 48 - 48) =     12.34254  eV     1   --> A'             
     e( 49 - 49) =     12.35498  eV     1   --> A'             
     e( 50 - 50) =     12.48809  eV     1   --> A''            
     e( 51 - 51) =     12.49173  eV     1   --> A'             
     e( 52 - 52) =     12.50154  eV     1   --> A''            
     e( 53 - 53) =     12.50926  eV     1   --> A''            
     e( 54 - 54) =     12.50981  eV     1   --> A'             
     e( 55 - 55) =     12.51113  eV     1   --> A''            
     e( 56 - 56) =     12.77449  eV     1   --> A'             
     e( 57 - 57) =     13.56884  eV     1   --> A''            
     e( 58 - 58) =     14.40873  eV     1   --> A'             
     e( 59 - 59) =     14.41337  eV     1   --> A''            
     e( 60 - 60) =     14.42108  eV     1   --> A''            
     e( 61 - 61) =     16.00431  eV     1   --> A'             
     e( 62 - 62) =     16.04924  eV     1   --> A''            
     e( 63 - 63) =     16.10294  eV     1   --> A'             
     e( 64 - 64) =     16.19845  eV     1   --> A''            
     e( 65 - 65) =     16.24462  eV     1   --> A'             
     e( 66 - 66) =     16.26122  eV     1   --> A''            
     e( 67 - 67) =     16.72166  eV     1   --> A'             
     e( 68 - 68) =     16.78832  eV     1   --> A'             

 **************************************************************************

 **************************************************************************

                    xk=(   0.02500,   0.02500,   0.00000  )

     Band symmetry, C_s (m)     point group:

     e(  1 -  1) =    -73.42630  eV     1   --> A'             
     e(  2 -  4) =    -73.42597  eV     3   --> A'             
     e(  2 -  4) =    -73.42597  eV     3   -->   2 A''            
     e(  5 -  7) =    -39.60667  eV     3   -->   2 A'             
     e(  5 -  7) =    -39.60667  eV     3   --> A''            
     e(  8 -  9) =    -39.60491  eV     2   -->   2 A''            
     e( 10 - 12) =    -39.60414  eV     3   -->   2 A'             
     e( 10 - 12) =    -39.60414  eV     3   --> A''            
     e( 13 - 13) =    -39.35563  eV     1   --> A''            
     e( 14 - 16) =    -39.35499  eV     3   -->   2 A'             
     e( 14 - 16) =    -39.35499  eV     3   --> A''            
     e( 17 - 17) =     -4.10799  eV     1   --> A'             
     e( 18 - 19) =     -1.98710  eV     2   --> A'             
     e( 18 - 19) =     -1.98710  eV     2   --> A''            
     e( 20 - 20) =     -1.98120  eV     1   --> A''            
     e( 21 - 21) =      0.55394  eV     1   --> A'             
     e( 22 - 22) =      0.55663  eV     1   --> A''            
     e( 23 - 23) =      0.55795  eV     1   --> A'             
     e( 24 - 24) =      2.00924  eV     1   --> A''            
     e( 25 - 25) =      6.22414  eV     1   --> A''            
     e( 26 - 26) =      6.22549  eV     1   --> A'             
     e( 27 - 27) =      6.23377  eV     1   --> A''            
     e( 28 - 28) =      6.96151  eV     1   --> A'             
     e( 29 - 29) =      6.97765  eV     1   --> A''            
     e( 30 - 30) =      6.98764  eV     1   --> A'             
     e( 31 - 31) =      7.73707  eV     1   --> A''            
     e( 32 - 32) =      7.79751  eV     1   --> A''            
     e( 33 - 33) =      7.95822  eV     1   --> A'             
     e( 34 - 34) =      8.00492  eV     1   --> A''            
     e( 35 - 35) =      8.01477  eV     1   --> A'             
     e( 36 - 36) =      8.04753  eV     1   --> A''            
     e( 37 - 37) =      9.06257  eV     1   --> A''            
     e( 38 - 38) =      9.07149  eV     1   --> A'             
     e( 39 - 39) =      9.07582  eV     1   --> A''            
     e( 40 - 40) =      9.41374  eV     1   --> A'             
     e( 41 - 41) =      9.42517  eV     1   --> A'             
     e( 42 - 42) =     10.28704  eV     1   --> A''            
     e( 43 - 43) =     10.30190  eV     1   --> A'             
     e( 44 - 44) =     10.31479  eV     1   --> A'             
     e( 45 - 45) =     11.78538  eV     1   --> A''            
     e( 46 - 46) =     11.78621  eV     1   --> A''            
     e( 47 - 47) =     11.79143  eV     1   --> A'             
     e( 48 - 48) =     12.35374  eV     1   --> A'             
     e( 49 - 49) =     12.35688  eV     1   --> A'             
     e( 50 - 50) =     12.49814  eV     1   --> A''            
     e( 51 - 51) =     12.49877  eV     1   --> A'             
     e( 52 - 52) =     12.50134  eV     1   --> A''            
     e( 53 - 53) =     12.50892  eV     1   --> A''            
     e( 54 - 55) =     12.50917  eV     2   --> A'             
     e( 54 - 55) =     12.50917  eV     2   --> A''            
     e( 56 - 56) =     12.77213  eV     1   --> A'             
     e( 57 - 57) =     13.52702  eV     1   --> A''            
     e( 58 - 58) =     14.41428  eV     1   --> A'             
     e( 59 - 59) =     14.41536  eV     1   --> A''            
     e( 60 - 60) =     14.41729  eV     1   --> A''            
     e( 61 - 61) =     16.07882  eV     1   --> A'             
     e( 62 - 62) =     16.09099  eV     1   --> A''            
     e( 63 - 63) =     16.11030  eV     1   --> A'             
     e( 64 - 64) =     16.20547  eV     1   --> A''            
     e( 65 - 65) =     16.22332  eV     1   --> A'             
     e( 66 - 66) =     16.22698  eV     1   --> A''            
     e( 67 - 67) =     16.79794  eV     1   --> A'             
     e( 68 - 68) =     16.81527  eV     1   --> A'             

 **************************************************************************

 **************************************************************************

                    xk=(   0.00000,   0.00000,   0.00000  )

     point group T_h (m-3)  
     there are  8 classes
     the character table:

       E     3C2   4C3   4C3'  i     3s_h  4S6^5 4S6  
A_g    1.00  1.00  1.00  1.00  1.00  1.00  1.00  1.00
E_g    1.00  1.00 -0.50 -0.50  1.00  1.00 -0.50 -0.50
E_g*   1.00  1.00 -0.50 -0.50  1.00  1.00 -0.50 -0.50
T_g    3.00 -1.00  0.00  0.00  3.00 -1.00  0.00  0.00
A_u    1.00  1.00  1.00  1.00 -1.00 -1.00 -1.00 -1.00
E_u    1.00  1.00 -0.50 -0.50 -1.00 -1.00  0.50  0.50
E_u*   1.00  1.00 -0.50 -0.50 -1.00 -1.00  0.50  0.50
T_u    3.00 -1.00  0.00  0.00 -3.00  1.00  0.00  0.00
     imaginary part
A_g    0.00  0.00  0.00  0.00  0.00  0.00  0.00  0.00
E_g    0.00  0.00  0.87 -0.87  0.00  0.00  0.87 -0.87
E_g*   0.00  0.00 -0.87  0.87  0.00  0.00 -0.87  0.87
T_g    0.00  0.00  0.00  0.00  0.00  0.00  0.00  0.00
A_u    0.00  0.00  0.00  0.00  0.00  0.00  0.00  0.00
E_u    0.00  0.00  0.87 -0.87  0.00  0.00 -0.87  0.87
E_u*   0.00  0.00 -0.87  0.87  0.00  0.00  0.87 -0.87
T_u    0.00  0.00  0.00  0.00  0.00  0.00  0.00  0.00

     the symmetry operations in each class and the name of the first element:

     E        1
                                                                 
     3C2      2    3    4
                                                                 
     4C3      9   12   10   11
                                                                 
     4C3'     5    7    8    6
                                                                 
     i       13
                                                                 
     3s_h    14   15   16
                                                                 
     4S6^5   21   24   22   23
                                                                 
     4S6     17   19   20   18
                                                                 

     Band symmetry, T_h (m-3)   point group:

     e(  1 -  1) =    -73.42637  eV     1   --> A_g            
     e(  2 -  4) =    -73.42597  eV     3   --> T_g            
     e(  5 -  7) =    -39.60668  eV     3   --> T_u            
     e(  8 -  9) =    -39.60491  eV     2   --> E_u            
     e(  8 -  9) =    -39.60491  eV     2   --> E_u*           
     e( 10 - 12) =    -39.60427  eV     3   --> T_u            
     e( 13 - 13) =    -39.35564  eV     1   --> A_u            
     e( 14 - 16) =    -39.35505  eV     3   --> T_u            
     e( 17 - 17) =     -4.11270  eV     1   --> A_g            
     e( 18 - 20) =     -1.98246  eV     3   --> T_g            
     e( 21 - 23) =      0.55359  eV     3   --> T_u            
     e( 24 - 24) =      2.01772  eV     1   --> A_u            
     e( 25 - 27) =      6.23661  eV     3   --> T_g            
     e( 28 - 30) =      6.97512  eV     3   --> T_u            
     e( 31 - 32) =      7.82965  eV     2   --> E_u            
     e( 31 - 32) =      7.82965  eV     2   --> E_u*           
     e( 33 - 35) =      7.94717  eV     3   --> T_g            
     e( 36 - 36) =      8.01951  eV     1   --> A_g            
     e( 37 - 39) =      9.06736  eV     3   --> T_g            
     e( 40 - 41) =      9.42894  eV     2   --> E_g            
     e( 40 - 41) =      9.42894  eV     2   --> E_g*           
     e( 42 - 44) =     10.29344  eV     3   --> T_u            
     e( 45 - 47) =     11.78135  eV     3   --> T_g            
     e( 48 - 49) =     12.35749  eV     2   --> E_g            
     e( 48 - 49) =     12.35749  eV     2   --> E_g*           
     e( 50 - 52) =     12.50083  eV     3   --> T_g            
     e( 53 - 55) =     12.50927  eV     3   --> T_g            
     e( 56 - 56) =     12.77137  eV     1   --> A_g            
     e( 57 - 57) =     13.51249  eV     1   --> A_u            
     e( 58 - 58) =     14.41607  eV     1   -->   ?
     e( 59 - 60) =     14.41619  eV     2   -->   ?
     e( 61 - 63) =     16.11250  eV     3   --> T_u            
     e( 64 - 65) =     16.20770  eV     2   -->   ?
     e( 66 - 66) =     16.20781  eV     1   -->   ?
     e( 67 - 68) =     16.82464  eV     2   --> E_g            
     e( 67 - 68) =     16.82464  eV     2   --> E_g*           

 **************************************************************************

     BANDS        :     40.79s CPU     50.68s WALL


   This run was terminated on:  10:54:37  22Sep2023            

=------------------------------------------------------------------------------=
   JOB DONE.
=------------------------------------------------------------------------------=
