
     Program PWSCF v.7.1 starts on 22Sep2023 at 10:52:23 

     This program is part of the open-source Quantum ESPRESSO suite
     for quantum simulation of materials; please cite
         "P. Giannozzi et al., J. Phys.:Condens. Matter 21 395502 (2009);
         "P. Giannozzi et al., J. Phys.:Condens. Matter 29 465901 (2017);
         "P. Giannozzi et al., J. Chem. Phys. 152 154105 (2020);
          URL http://www.quantum-espresso.org", 
     in publications or presentations arising from this work. More details at
     http://www.quantum-espresso.org/quote

     Parallel version (MPI & OpenMP), running on      10 processor cores
     Number of MPI processes:                10
     Threads/MPI process:                     1

     MPI processes distributed on     1 nodes
     11762 MiB available memory on the printing compute node when the environment starts

     Waiting for input...
     Reading input from standard input

     Current dimensions of program PWSCF are:
     Max number of different atomic species (ntypx) = 10
     Max number of k-points (npk) =  40000
     Max angular momentum in pseudopotentials (lmaxx) =  4

     Atomic positions and unit cell read from directory:
     ./work/pwscf.save/

     file S.pbe-n-kjpaw_psl.1.0.0.UPF: wavefunction(s)  3S 3P renormalized
     file Fe.pbe-spn-kjpaw_psl.1.0.0.UPF: wavefunction(s)  3P 3D renormalized
     Message from routine setup:
     using ibrav=0 with symmetry is DISCOURAGED, use correct ibrav instead

     R & G space division:  proc/nbgrp/npool/nimage =      10
     Subspace diagonalization in iterative solution of the eigenvalue problem:
     a serial algorithm will be used


     Parallelization info
     --------------------
     sticks:   dense  smooth     PW     G-vecs:    dense   smooth      PW
     Min         411     236     66                19790     8572    1296
     Max         413     237     67                19791     8575    1297
     Sum        4117    2361    665               197909    85735   12965

     Using Slab Decomposition



     bravais-lattice index     =            0
     lattice parameter (alat)  =      10.1985  a.u.
     unit-cell volume          =    1060.7436 (a.u.)^3
     number of atoms/cell      =           12
     number of atomic types    =            2
     number of electrons       =       112.00
     number of Kohn-Sham states=           68
     kinetic-energy cutoff     =      71.0000  Ry
     charge density cutoff     =     496.0000  Ry
     Exchange-correlation= SLA  PW   PBX  PBC
                           (   1   4   3   4   0   0   0)

     celldm(1)=  10.198512  celldm(2)=   0.000000  celldm(3)=   0.000000
     celldm(4)=   0.000000  celldm(5)=   0.000000  celldm(6)=   0.000000

     crystal axes: (cart. coord. in units of alat)
               a(1) = (   1.000000   0.000000   0.000000 )  
               a(2) = (   0.000000   1.000000   0.000000 )  
               a(3) = (   0.000000   0.000000   1.000000 )  

     reciprocal axes: (cart. coord. in units 2 pi/alat)
               b(1) = (  1.000000  0.000000  0.000000 )  
               b(2) = (  0.000000  1.000000  0.000000 )  
               b(3) = (  0.000000  0.000000  1.000000 )  


     PseudoPot. # 1 for S  read from file:
     ./../../pseudo/psl100_PBE/S.pbe-n-kjpaw_psl.1.0.0.UPF
     MD5 check sum: 9cd113d867db26c38f4eaae6a4421758
     Pseudo is Projector augmented-wave + core cor, Zval =  6.0
     Generated using 'atomic' code by A. Dal Corso  v.7.2
     Shape of augmentation charge: PSQ
     Using radial grid of 1151 points,  6 beta functions with: 
                l(1) =   0
                l(2) =   0
                l(3) =   1
                l(4) =   1
                l(5) =   2
                l(6) =   2
     Q(r) pseudized with 0 coefficients 


     PseudoPot. # 2 for Fe read from file:
     ./../../pseudo/psl100_PBE/Fe.pbe-spn-kjpaw_psl.1.0.0.UPF
     MD5 check sum: bcb9ab80563fcd4521c5f14da65cef4b
     Pseudo is Projector augmented-wave + core cor, Zval = 16.0
     Generated using 'atomic' code by A. Dal Corso  v.7.2
     Shape of augmentation charge: PSQ
     Using radial grid of 1191 points,  6 beta functions with: 
                l(1) =   0
                l(2) =   0
                l(3) =   1
                l(4) =   1
                l(5) =   2
                l(6) =   2
     Q(r) pseudized with 0 coefficients 


     atomic species   valence    mass     pseudopotential
        S              6.00    32.06750     S ( 1.00)
        Fe            16.00    55.84500     Fe( 1.00)

     24 Sym. Ops., with inversion, found (18 have fractional translation)


                                    s                        frac. trans.

      isym =  1     identity                                     

 cryst.   s( 1) = (     1          0          0      )
                  (     0          1          0      )
                  (     0          0          1      )

 cart.    s( 1) = (  1.0000000  0.0000000  0.0000000 )
                  (  0.0000000  1.0000000  0.0000000 )
                  (  0.0000000  0.0000000  1.0000000 )


      isym =  2     180 deg rotation - cart. axis [0,0,1]        

 cryst.   s( 2) = (    -1          0          0      )    f =( -0.5000000 )
                  (     0         -1          0      )       (  0.0000000 )
                  (     0          0          1      )       ( -0.5000000 )

 cart.    s( 2) = ( -1.0000000  0.0000000  0.0000000 )    f =( -0.5000000 )
                  (  0.0000000 -1.0000000  0.0000000 )       (  0.0000000 )
                  (  0.0000000  0.0000000  1.0000000 )       ( -0.5000000 )


      isym =  3     180 deg rotation - cart. axis [0,1,0]        

 cryst.   s( 3) = (    -1          0          0      )    f =(  0.0000000 )
                  (     0          1          0      )       ( -0.5000000 )
                  (     0          0         -1      )       ( -0.5000000 )

 cart.    s( 3) = ( -1.0000000  0.0000000  0.0000000 )    f =(  0.0000000 )
                  (  0.0000000  1.0000000  0.0000000 )       ( -0.5000000 )
                  (  0.0000000  0.0000000 -1.0000000 )       ( -0.5000000 )


      isym =  4     180 deg rotation - cart. axis [1,0,0]        

 cryst.   s( 4) = (     1          0          0      )    f =(  0.5000000 )
                  (     0         -1          0      )       ( -0.5000000 )
                  (     0          0         -1      )       (  0.0000000 )

 cart.    s( 4) = (  1.0000000  0.0000000  0.0000000 )    f =(  0.5000000 )
                  (  0.0000000 -1.0000000  0.0000000 )       ( -0.5000000 )
                  (  0.0000000  0.0000000 -1.0000000 )       (  0.0000000 )


      isym =  5     120 deg rotation - cart. axis [-1,-1,-1]     

 cryst.   s( 5) = (     0          0          1      )
                  (     1          0          0      )
                  (     0          1          0      )

 cart.    s( 5) = (  0.0000000  1.0000000  0.0000000 )
                  (  0.0000000  0.0000000  1.0000000 )
                  (  1.0000000  0.0000000  0.0000000 )


      isym =  6     120 deg rotation - cart. axis [-1,1,1]       

 cryst.   s( 6) = (     0          0         -1      )    f =(  0.0000000 )
                  (    -1          0          0      )       ( -0.5000000 )
                  (     0          1          0      )       ( -0.5000000 )

 cart.    s( 6) = (  0.0000000 -1.0000000  0.0000000 )    f =(  0.0000000 )
                  (  0.0000000  0.0000000  1.0000000 )       ( -0.5000000 )
                  ( -1.0000000  0.0000000  0.0000000 )       ( -0.5000000 )


      isym =  7     120 deg rotation - cart. axis [1,1,-1]       

 cryst.   s( 7) = (     0          0         -1      )    f =(  0.5000000 )
                  (     1          0          0      )       ( -0.5000000 )
                  (     0         -1          0      )       (  0.0000000 )

 cart.    s( 7) = (  0.0000000  1.0000000  0.0000000 )    f =(  0.5000000 )
                  (  0.0000000  0.0000000 -1.0000000 )       ( -0.5000000 )
                  ( -1.0000000  0.0000000  0.0000000 )       (  0.0000000 )


      isym =  8     120 deg rotation - cart. axis [1,-1,1]       

 cryst.   s( 8) = (     0          0          1      )    f =( -0.5000000 )
                  (    -1          0          0      )       (  0.0000000 )
                  (     0         -1          0      )       ( -0.5000000 )

 cart.    s( 8) = (  0.0000000 -1.0000000  0.0000000 )    f =( -0.5000000 )
                  (  0.0000000  0.0000000 -1.0000000 )       (  0.0000000 )
                  (  1.0000000  0.0000000  0.0000000 )       ( -0.5000000 )


      isym =  9     120 deg rotation - cart. axis [1,1,1]        

 cryst.   s( 9) = (     0          1          0      )
                  (     0          0          1      )
                  (     1          0          0      )

 cart.    s( 9) = (  0.0000000  0.0000000  1.0000000 )
                  (  1.0000000  0.0000000  0.0000000 )
                  (  0.0000000  1.0000000  0.0000000 )


      isym = 10     120 deg rotation - cart. axis [-1,1,-1]      

 cryst.   s(10) = (     0         -1          0      )    f =(  0.5000000 )
                  (     0          0         -1      )       ( -0.5000000 )
                  (     1          0          0      )       (  0.0000000 )

 cart.    s(10) = (  0.0000000  0.0000000  1.0000000 )    f =(  0.5000000 )
                  ( -1.0000000  0.0000000  0.0000000 )       ( -0.5000000 )
                  (  0.0000000 -1.0000000  0.0000000 )       (  0.0000000 )


      isym = 11     120 deg rotation - cart. axis [1,-1,-1]      

 cryst.   s(11) = (     0         -1          0      )    f =( -0.5000000 )
                  (     0          0          1      )       (  0.0000000 )
                  (    -1          0          0      )       ( -0.5000000 )

 cart.    s(11) = (  0.0000000  0.0000000 -1.0000000 )    f =( -0.5000000 )
                  ( -1.0000000  0.0000000  0.0000000 )       (  0.0000000 )
                  (  0.0000000  1.0000000  0.0000000 )       ( -0.5000000 )


      isym = 12     120 deg rotation - cart. axis [-1,-1,1]      

 cryst.   s(12) = (     0          1          0      )    f =(  0.0000000 )
                  (     0          0         -1      )       ( -0.5000000 )
                  (    -1          0          0      )       ( -0.5000000 )

 cart.    s(12) = (  0.0000000  0.0000000 -1.0000000 )    f =(  0.0000000 )
                  (  1.0000000  0.0000000  0.0000000 )       ( -0.5000000 )
                  (  0.0000000 -1.0000000  0.0000000 )       ( -0.5000000 )


      isym = 13     inversion                                    

 cryst.   s(13) = (    -1          0          0      )
                  (     0         -1          0      )
                  (     0          0         -1      )

 cart.    s(13) = ( -1.0000000  0.0000000  0.0000000 )
                  (  0.0000000 -1.0000000  0.0000000 )
                  (  0.0000000  0.0000000 -1.0000000 )


      isym = 14     inv. 180 deg rotation - cart. axis [0,0,1]   

 cryst.   s(14) = (     1          0          0      )    f =(  0.5000000 )
                  (     0          1          0      )       (  0.0000000 )
                  (     0          0         -1      )       ( -0.5000000 )

 cart.    s(14) = (  1.0000000  0.0000000  0.0000000 )    f =(  0.5000000 )
                  (  0.0000000  1.0000000  0.0000000 )       (  0.0000000 )
                  (  0.0000000  0.0000000 -1.0000000 )       ( -0.5000000 )


      isym = 15     inv. 180 deg rotation - cart. axis [0,1,0]   

 cryst.   s(15) = (     1          0          0      )    f =(  0.0000000 )
                  (     0         -1          0      )       ( -0.5000000 )
                  (     0          0          1      )       ( -0.5000000 )

 cart.    s(15) = (  1.0000000  0.0000000  0.0000000 )    f =(  0.0000000 )
                  (  0.0000000 -1.0000000  0.0000000 )       ( -0.5000000 )
                  (  0.0000000  0.0000000  1.0000000 )       ( -0.5000000 )


      isym = 16     inv. 180 deg rotation - cart. axis [1,0,0]   

 cryst.   s(16) = (    -1          0          0      )    f =( -0.5000000 )
                  (     0          1          0      )       ( -0.5000000 )
                  (     0          0          1      )       (  0.0000000 )

 cart.    s(16) = ( -1.0000000  0.0000000  0.0000000 )    f =( -0.5000000 )
                  (  0.0000000  1.0000000  0.0000000 )       ( -0.5000000 )
                  (  0.0000000  0.0000000  1.0000000 )       (  0.0000000 )


      isym = 17     inv. 120 deg rotation - cart. axis [-1,-1,-1]

 cryst.   s(17) = (     0          0         -1      )
                  (    -1          0          0      )
                  (     0         -1          0      )

 cart.    s(17) = (  0.0000000 -1.0000000  0.0000000 )
                  (  0.0000000  0.0000000 -1.0000000 )
                  ( -1.0000000  0.0000000  0.0000000 )


      isym = 18     inv. 120 deg rotation - cart. axis [-1,1,1]  

 cryst.   s(18) = (     0          0          1      )    f =(  0.0000000 )
                  (     1          0          0      )       ( -0.5000000 )
                  (     0         -1          0      )       ( -0.5000000 )

 cart.    s(18) = (  0.0000000  1.0000000  0.0000000 )    f =(  0.0000000 )
                  (  0.0000000  0.0000000 -1.0000000 )       ( -0.5000000 )
                  (  1.0000000  0.0000000  0.0000000 )       ( -0.5000000 )


      isym = 19     inv. 120 deg rotation - cart. axis [1,1,-1]  

 cryst.   s(19) = (     0          0          1      )    f =( -0.5000000 )
                  (    -1          0          0      )       ( -0.5000000 )
                  (     0          1          0      )       (  0.0000000 )

 cart.    s(19) = (  0.0000000 -1.0000000  0.0000000 )    f =( -0.5000000 )
                  (  0.0000000  0.0000000  1.0000000 )       ( -0.5000000 )
                  (  1.0000000  0.0000000  0.0000000 )       (  0.0000000 )


      isym = 20     inv. 120 deg rotation - cart. axis [1,-1,1]  

 cryst.   s(20) = (     0          0         -1      )    f =(  0.5000000 )
                  (     1          0          0      )       (  0.0000000 )
                  (     0          1          0      )       ( -0.5000000 )

 cart.    s(20) = (  0.0000000  1.0000000  0.0000000 )    f =(  0.5000000 )
                  (  0.0000000  0.0000000  1.0000000 )       (  0.0000000 )
                  ( -1.0000000  0.0000000  0.0000000 )       ( -0.5000000 )


      isym = 21     inv. 120 deg rotation - cart. axis [1,1,1]   

 cryst.   s(21) = (     0         -1          0      )
                  (     0          0         -1      )
                  (    -1          0          0      )

 cart.    s(21) = (  0.0000000  0.0000000 -1.0000000 )
                  ( -1.0000000  0.0000000  0.0000000 )
                  (  0.0000000 -1.0000000  0.0000000 )


      isym = 22     inv. 120 deg rotation - cart. axis [-1,1,-1] 

 cryst.   s(22) = (     0          1          0      )    f =( -0.5000000 )
                  (     0          0          1      )       ( -0.5000000 )
                  (    -1          0          0      )       (  0.0000000 )

 cart.    s(22) = (  0.0000000  0.0000000 -1.0000000 )    f =( -0.5000000 )
                  (  1.0000000  0.0000000  0.0000000 )       ( -0.5000000 )
                  (  0.0000000  1.0000000  0.0000000 )       (  0.0000000 )


      isym = 23     inv. 120 deg rotation - cart. axis [1,-1,-1] 

 cryst.   s(23) = (     0          1          0      )    f =(  0.5000000 )
                  (     0          0         -1      )       (  0.0000000 )
                  (     1          0          0      )       ( -0.5000000 )

 cart.    s(23) = (  0.0000000  0.0000000  1.0000000 )    f =(  0.5000000 )
                  (  1.0000000  0.0000000  0.0000000 )       (  0.0000000 )
                  (  0.0000000 -1.0000000  0.0000000 )       ( -0.5000000 )


      isym = 24     inv. 120 deg rotation - cart. axis [-1,-1,1] 

 cryst.   s(24) = (     0         -1          0      )    f =(  0.0000000 )
                  (     0          0          1      )       ( -0.5000000 )
                  (     1          0          0      )       ( -0.5000000 )

 cart.    s(24) = (  0.0000000  0.0000000  1.0000000 )    f =(  0.0000000 )
                  ( -1.0000000  0.0000000  0.0000000 )       ( -0.5000000 )
                  (  0.0000000  1.0000000  0.0000000 )       ( -0.5000000 )


   Cartesian axes

     site n.     atom                  positions (alat units)
         1           Fe  tau(   1) = (   0.0000000   0.5000000   0.5000000  )
         2           Fe  tau(   2) = (   0.0000000   0.0000000   0.0000000  )
         3           Fe  tau(   3) = (   0.5000000   0.5000000   0.0000000  )
         4           Fe  tau(   4) = (   0.5000000   0.0000000   0.5000000  )
         5           S   tau(   5) = (   0.3853800   0.1146200   0.8853800  )
         6           S   tau(   6) = (   0.3853800   0.3853800   0.3853800  )
         7           S   tau(   7) = (   0.1146200   0.8853800   0.3853800  )
         8           S   tau(   8) = (   0.1146200   0.6146200   0.8853800  )
         9           S   tau(   9) = (   0.8853800   0.1146200   0.6146200  )
        10           S   tau(  10) = (   0.8853800   0.3853800   0.1146200  )
        11           S   tau(  11) = (   0.6146200   0.8853800   0.1146200  )
        12           S   tau(  12) = (   0.6146200   0.6146200   0.6146200  )

   Crystallographic axes

     site n.     atom                  positions (cryst. coord.)
         1           Fe  tau(   1) = (  0.0000000  0.5000000  0.5000000  )
         2           Fe  tau(   2) = (  0.0000000  0.0000000  0.0000000  )
         3           Fe  tau(   3) = (  0.5000000  0.5000000  0.0000000  )
         4           Fe  tau(   4) = (  0.5000000  0.0000000  0.5000000  )
         5           S   tau(   5) = (  0.3853800  0.1146200  0.8853800  )
         6           S   tau(   6) = (  0.3853800  0.3853800  0.3853800  )
         7           S   tau(   7) = (  0.1146200  0.8853800  0.3853800  )
         8           S   tau(   8) = (  0.1146200  0.6146200  0.8853800  )
         9           S   tau(   9) = (  0.8853800  0.1146200  0.6146200  )
        10           S   tau(  10) = (  0.8853800  0.3853800  0.1146200  )
        11           S   tau(  11) = (  0.6146200  0.8853800  0.1146200  )
        12           S   tau(  12) = (  0.6146200  0.6146200  0.6146200  )

     number of k points=    81  Methfessel-Paxton smearing, width (Ry)=  0.0100
                       cart. coord. in units 2pi/alat
        k(    1) = (   0.5000000   0.5000000   0.5000000), wk =   0.0246914
        k(    2) = (   0.4750000   0.4750000   0.4750000), wk =   0.0246914
        k(    3) = (   0.4500000   0.4500000   0.4500000), wk =   0.0246914
        k(    4) = (   0.4250000   0.4250000   0.4250000), wk =   0.0246914
        k(    5) = (   0.4000000   0.4000000   0.4000000), wk =   0.0246914
        k(    6) = (   0.3750000   0.3750000   0.3750000), wk =   0.0246914
        k(    7) = (   0.3500000   0.3500000   0.3500000), wk =   0.0246914
        k(    8) = (   0.3250000   0.3250000   0.3250000), wk =   0.0246914
        k(    9) = (   0.3000000   0.3000000   0.3000000), wk =   0.0246914
        k(   10) = (   0.2750000   0.2750000   0.2750000), wk =   0.0246914
        k(   11) = (   0.2500000   0.2500000   0.2500000), wk =   0.0246914
        k(   12) = (   0.2250000   0.2250000   0.2250000), wk =   0.0246914
        k(   13) = (   0.2000000   0.2000000   0.2000000), wk =   0.0246914
        k(   14) = (   0.1750000   0.1750000   0.1750000), wk =   0.0246914
        k(   15) = (   0.1500000   0.1500000   0.1500000), wk =   0.0246914
        k(   16) = (   0.1250000   0.1250000   0.1250000), wk =   0.0246914
        k(   17) = (   0.1000000   0.1000000   0.1000000), wk =   0.0246914
        k(   18) = (   0.0750000   0.0750000   0.0750000), wk =   0.0246914
        k(   19) = (   0.0500000   0.0500000   0.0500000), wk =   0.0246914
        k(   20) = (   0.0250000   0.0250000   0.0250000), wk =   0.0246914
        k(   21) = (   0.0000000   0.0000000   0.0000000), wk =   0.0246914
        k(   22) = (   0.0000000   0.0250000   0.0000000), wk =   0.0246914
        k(   23) = (   0.0000000   0.0500000   0.0000000), wk =   0.0246914
        k(   24) = (   0.0000000   0.0750000   0.0000000), wk =   0.0246914
        k(   25) = (   0.0000000   0.1000000   0.0000000), wk =   0.0246914
        k(   26) = (   0.0000000   0.1250000   0.0000000), wk =   0.0246914
        k(   27) = (   0.0000000   0.1500000   0.0000000), wk =   0.0246914
        k(   28) = (   0.0000000   0.1750000   0.0000000), wk =   0.0246914
        k(   29) = (   0.0000000   0.2000000   0.0000000), wk =   0.0246914
        k(   30) = (   0.0000000   0.2250000   0.0000000), wk =   0.0246914
        k(   31) = (   0.0000000   0.2500000   0.0000000), wk =   0.0246914
        k(   32) = (   0.0000000   0.2750000   0.0000000), wk =   0.0246914
        k(   33) = (   0.0000000   0.3000000   0.0000000), wk =   0.0246914
        k(   34) = (   0.0000000   0.3250000   0.0000000), wk =   0.0246914
        k(   35) = (   0.0000000   0.3500000   0.0000000), wk =   0.0246914
        k(   36) = (   0.0000000   0.3750000   0.0000000), wk =   0.0246914
        k(   37) = (   0.0000000   0.4000000   0.0000000), wk =   0.0246914
        k(   38) = (   0.0000000   0.4250000   0.0000000), wk =   0.0246914
        k(   39) = (   0.0000000   0.4500000   0.0000000), wk =   0.0246914
        k(   40) = (   0.0000000   0.4750000   0.0000000), wk =   0.0246914
        k(   41) = (   0.0000000   0.5000000   0.0000000), wk =   0.0246914
        k(   42) = (   0.0250000   0.5000000   0.0000000), wk =   0.0246914
        k(   43) = (   0.0500000   0.5000000   0.0000000), wk =   0.0246914
        k(   44) = (   0.0750000   0.5000000   0.0000000), wk =   0.0246914
        k(   45) = (   0.1000000   0.5000000   0.0000000), wk =   0.0246914
        k(   46) = (   0.1250000   0.5000000   0.0000000), wk =   0.0246914
        k(   47) = (   0.1500000   0.5000000   0.0000000), wk =   0.0246914
        k(   48) = (   0.1750000   0.5000000   0.0000000), wk =   0.0246914
        k(   49) = (   0.2000000   0.5000000   0.0000000), wk =   0.0246914
        k(   50) = (   0.2250000   0.5000000   0.0000000), wk =   0.0246914
        k(   51) = (   0.2500000   0.5000000   0.0000000), wk =   0.0246914
        k(   52) = (   0.2750000   0.5000000   0.0000000), wk =   0.0246914
        k(   53) = (   0.3000000   0.5000000   0.0000000), wk =   0.0246914
        k(   54) = (   0.3250000   0.5000000   0.0000000), wk =   0.0246914
        k(   55) = (   0.3500000   0.5000000   0.0000000), wk =   0.0246914
        k(   56) = (   0.3750000   0.5000000   0.0000000), wk =   0.0246914
        k(   57) = (   0.4000000   0.5000000   0.0000000), wk =   0.0246914
        k(   58) = (   0.4250000   0.5000000   0.0000000), wk =   0.0246914
        k(   59) = (   0.4500000   0.5000000   0.0000000), wk =   0.0246914
        k(   60) = (   0.4750000   0.5000000   0.0000000), wk =   0.0246914
        k(   61) = (   0.5000000   0.5000000   0.0000000), wk =   0.0246914
        k(   62) = (   0.4750000   0.4750000   0.0000000), wk =   0.0246914
        k(   63) = (   0.4500000   0.4500000   0.0000000), wk =   0.0246914
        k(   64) = (   0.4250000   0.4250000   0.0000000), wk =   0.0246914
        k(   65) = (   0.4000000   0.4000000   0.0000000), wk =   0.0246914
        k(   66) = (   0.3750000   0.3750000   0.0000000), wk =   0.0246914
        k(   67) = (   0.3500000   0.3500000   0.0000000), wk =   0.0246914
        k(   68) = (   0.3250000   0.3250000   0.0000000), wk =   0.0246914
        k(   69) = (   0.3000000   0.3000000   0.0000000), wk =   0.0246914
        k(   70) = (   0.2750000   0.2750000   0.0000000), wk =   0.0246914
        k(   71) = (   0.2500000   0.2500000   0.0000000), wk =   0.0246914
        k(   72) = (   0.2250000   0.2250000   0.0000000), wk =   0.0246914
        k(   73) = (   0.2000000   0.2000000   0.0000000), wk =   0.0246914
        k(   74) = (   0.1750000   0.1750000   0.0000000), wk =   0.0246914
        k(   75) = (   0.1500000   0.1500000   0.0000000), wk =   0.0246914
        k(   76) = (   0.1250000   0.1250000   0.0000000), wk =   0.0246914
        k(   77) = (   0.1000000   0.1000000   0.0000000), wk =   0.0246914
        k(   78) = (   0.0750000   0.0750000   0.0000000), wk =   0.0246914
        k(   79) = (   0.0500000   0.0500000   0.0000000), wk =   0.0246914
        k(   80) = (   0.0250000   0.0250000   0.0000000), wk =   0.0246914
        k(   81) = (   0.0000000   0.0000000   0.0000000), wk =   0.0246914

                       cryst. coord.
        k(    1) = (   0.5000000   0.5000000   0.5000000), wk =   0.0246914
        k(    2) = (   0.4750000   0.4750000   0.4750000), wk =   0.0246914
        k(    3) = (   0.4500000   0.4500000   0.4500000), wk =   0.0246914
        k(    4) = (   0.4250000   0.4250000   0.4250000), wk =   0.0246914
        k(    5) = (   0.4000000   0.4000000   0.4000000), wk =   0.0246914
        k(    6) = (   0.3750000   0.3750000   0.3750000), wk =   0.0246914
        k(    7) = (   0.3500000   0.3500000   0.3500000), wk =   0.0246914
        k(    8) = (   0.3250000   0.3250000   0.3250000), wk =   0.0246914
        k(    9) = (   0.3000000   0.3000000   0.3000000), wk =   0.0246914
        k(   10) = (   0.2750000   0.2750000   0.2750000), wk =   0.0246914
        k(   11) = (   0.2500000   0.2500000   0.2500000), wk =   0.0246914
        k(   12) = (   0.2250000   0.2250000   0.2250000), wk =   0.0246914
        k(   13) = (   0.2000000   0.2000000   0.2000000), wk =   0.0246914
        k(   14) = (   0.1750000   0.1750000   0.1750000), wk =   0.0246914
        k(   15) = (   0.1500000   0.1500000   0.1500000), wk =   0.0246914
        k(   16) = (   0.1250000   0.1250000   0.1250000), wk =   0.0246914
        k(   17) = (   0.1000000   0.1000000   0.1000000), wk =   0.0246914
        k(   18) = (   0.0750000   0.0750000   0.0750000), wk =   0.0246914
        k(   19) = (   0.0500000   0.0500000   0.0500000), wk =   0.0246914
        k(   20) = (   0.0250000   0.0250000   0.0250000), wk =   0.0246914
        k(   21) = (   0.0000000   0.0000000   0.0000000), wk =   0.0246914
        k(   22) = (   0.0000000   0.0250000   0.0000000), wk =   0.0246914
        k(   23) = (   0.0000000   0.0500000   0.0000000), wk =   0.0246914
        k(   24) = (   0.0000000   0.0750000   0.0000000), wk =   0.0246914
        k(   25) = (   0.0000000   0.1000000   0.0000000), wk =   0.0246914
        k(   26) = (   0.0000000   0.1250000   0.0000000), wk =   0.0246914
        k(   27) = (   0.0000000   0.1500000   0.0000000), wk =   0.0246914
        k(   28) = (   0.0000000   0.1750000   0.0000000), wk =   0.0246914
        k(   29) = (   0.0000000   0.2000000   0.0000000), wk =   0.0246914
        k(   30) = (   0.0000000   0.2250000   0.0000000), wk =   0.0246914
        k(   31) = (   0.0000000   0.2500000   0.0000000), wk =   0.0246914
        k(   32) = (   0.0000000   0.2750000   0.0000000), wk =   0.0246914
        k(   33) = (   0.0000000   0.3000000   0.0000000), wk =   0.0246914
        k(   34) = (   0.0000000   0.3250000   0.0000000), wk =   0.0246914
        k(   35) = (   0.0000000   0.3500000   0.0000000), wk =   0.0246914
        k(   36) = (   0.0000000   0.3750000   0.0000000), wk =   0.0246914
        k(   37) = (   0.0000000   0.4000000   0.0000000), wk =   0.0246914
        k(   38) = (   0.0000000   0.4250000   0.0000000), wk =   0.0246914
        k(   39) = (   0.0000000   0.4500000   0.0000000), wk =   0.0246914
        k(   40) = (   0.0000000   0.4750000   0.0000000), wk =   0.0246914
        k(   41) = (   0.0000000   0.5000000   0.0000000), wk =   0.0246914
        k(   42) = (   0.0250000   0.5000000   0.0000000), wk =   0.0246914
        k(   43) = (   0.0500000   0.5000000   0.0000000), wk =   0.0246914
        k(   44) = (   0.0750000   0.5000000   0.0000000), wk =   0.0246914
        k(   45) = (   0.1000000   0.5000000   0.0000000), wk =   0.0246914
        k(   46) = (   0.1250000   0.5000000   0.0000000), wk =   0.0246914
        k(   47) = (   0.1500000   0.5000000   0.0000000), wk =   0.0246914
        k(   48) = (   0.1750000   0.5000000   0.0000000), wk =   0.0246914
        k(   49) = (   0.2000000   0.5000000   0.0000000), wk =   0.0246914
        k(   50) = (   0.2250000   0.5000000   0.0000000), wk =   0.0246914
        k(   51) = (   0.2500000   0.5000000   0.0000000), wk =   0.0246914
        k(   52) = (   0.2750000   0.5000000   0.0000000), wk =   0.0246914
        k(   53) = (   0.3000000   0.5000000   0.0000000), wk =   0.0246914
        k(   54) = (   0.3250000   0.5000000   0.0000000), wk =   0.0246914
        k(   55) = (   0.3500000   0.5000000   0.0000000), wk =   0.0246914
        k(   56) = (   0.3750000   0.5000000   0.0000000), wk =   0.0246914
        k(   57) = (   0.4000000   0.5000000   0.0000000), wk =   0.0246914
        k(   58) = (   0.4250000   0.5000000   0.0000000), wk =   0.0246914
        k(   59) = (   0.4500000   0.5000000   0.0000000), wk =   0.0246914
        k(   60) = (   0.4750000   0.5000000   0.0000000), wk =   0.0246914
        k(   61) = (   0.5000000   0.5000000   0.0000000), wk =   0.0246914
        k(   62) = (   0.4750000   0.4750000   0.0000000), wk =   0.0246914
        k(   63) = (   0.4500000   0.4500000   0.0000000), wk =   0.0246914
        k(   64) = (   0.4250000   0.4250000   0.0000000), wk =   0.0246914
        k(   65) = (   0.4000000   0.4000000   0.0000000), wk =   0.0246914
        k(   66) = (   0.3750000   0.3750000   0.0000000), wk =   0.0246914
        k(   67) = (   0.3500000   0.3500000   0.0000000), wk =   0.0246914
        k(   68) = (   0.3250000   0.3250000   0.0000000), wk =   0.0246914
        k(   69) = (   0.3000000   0.3000000   0.0000000), wk =   0.0246914
        k(   70) = (   0.2750000   0.2750000   0.0000000), wk =   0.0246914
        k(   71) = (   0.2500000   0.2500000   0.0000000), wk =   0.0246914
        k(   72) = (   0.2250000   0.2250000   0.0000000), wk =   0.0246914
        k(   73) = (   0.2000000   0.2000000   0.0000000), wk =   0.0246914
        k(   74) = (   0.1750000   0.1750000   0.0000000), wk =   0.0246914
        k(   75) = (   0.1500000   0.1500000   0.0000000), wk =   0.0246914
        k(   76) = (   0.1250000   0.1250000   0.0000000), wk =   0.0246914
        k(   77) = (   0.1000000   0.1000000   0.0000000), wk =   0.0246914
        k(   78) = (   0.0750000   0.0750000   0.0000000), wk =   0.0246914
        k(   79) = (   0.0500000   0.0500000   0.0000000), wk =   0.0246914
        k(   80) = (   0.0250000   0.0250000   0.0000000), wk =   0.0246914
        k(   81) = (   0.0000000   0.0000000   0.0000000), wk =   0.0246914

     Dense  grid:   197909 G-vectors     FFT dimensions: (  80,  80,  80)

     Smooth grid:    85735 G-vectors     FFT dimensions: (  60,  60,  60)

     Dynamical RAM for                 wfc:       1.11 MB

     Dynamical RAM for     wfc (w. buffer):      91.12 MB

     Dynamical RAM for           str. fact:       0.60 MB

     Dynamical RAM for           local pot:       0.00 MB

     Dynamical RAM for          nlocal pot:       3.53 MB

     Dynamical RAM for                qrad:       3.57 MB

     Dynamical RAM for          rho,v,vnew:       2.08 MB

     Dynamical RAM for           G-vectors:       1.20 MB

     Dynamical RAM for          h,s,v(r/c):       0.85 MB

     Dynamical RAM for          <psi|beta>:       0.22 MB

     Dynamical RAM for                 psi:       2.22 MB

     Dynamical RAM for                hpsi:       2.22 MB

     Dynamical RAM for                spsi:       2.22 MB

     Dynamical RAM for      wfcinit/wfcrot:       2.47 MB

     Dynamical RAM for           addusdens:      58.59 MB

     Estimated static dynamical RAM per process >     104.97 MB

     Estimated max dynamical RAM per process >     163.55 MB

     Estimated total dynamical RAM >       1.60 GB

     The potential is recalculated from file :
     ./work/pwscf.save/charge-density

     Starting wfcs are   72 randomized atomic wfcs
     Checking if some PAW data can be deallocated... 
       PAW data deallocated on    2 nodes for type:  1
       PAW data deallocated on    8 nodes for type:  2

     Band Structure Calculation
     Davidson diagonalization with overlap

     Computing kpt #:     1  of    81
     total cpu time spent up to now is        2.3 secs

     Computing kpt #:     2  of    81
     total cpu time spent up to now is        3.1 secs

     Computing kpt #:     3  of    81
     total cpu time spent up to now is        4.0 secs

     Computing kpt #:     4  of    81
     total cpu time spent up to now is        4.9 secs

     Computing kpt #:     5  of    81
     total cpu time spent up to now is        5.8 secs

     Computing kpt #:     6  of    81
     total cpu time spent up to now is        6.7 secs

     Computing kpt #:     7  of    81
     total cpu time spent up to now is        7.5 secs

     Computing kpt #:     8  of    81
     total cpu time spent up to now is        8.4 secs

     Computing kpt #:     9  of    81
     total cpu time spent up to now is        9.3 secs

     Computing kpt #:    10  of    81
     total cpu time spent up to now is       10.2 secs

     Computing kpt #:    11  of    81
     total cpu time spent up to now is       11.1 secs

     Computing kpt #:    12  of    81
     total cpu time spent up to now is       12.0 secs

     Computing kpt #:    13  of    81
     total cpu time spent up to now is       12.8 secs

     Computing kpt #:    14  of    81
     total cpu time spent up to now is       13.7 secs

     Computing kpt #:    15  of    81
     total cpu time spent up to now is       14.6 secs

     Computing kpt #:    16  of    81
     total cpu time spent up to now is       15.5 secs

     Computing kpt #:    17  of    81
     total cpu time spent up to now is       16.3 secs

     Computing kpt #:    18  of    81
     total cpu time spent up to now is       17.2 secs

     Computing kpt #:    19  of    81
     total cpu time spent up to now is       18.1 secs

     Computing kpt #:    20  of    81
     total cpu time spent up to now is       18.9 secs

     Computing kpt #:    21  of    81
     total cpu time spent up to now is       19.8 secs

     Computing kpt #:    22  of    81
     total cpu time spent up to now is       20.7 secs

     Computing kpt #:    23  of    81
     total cpu time spent up to now is       21.7 secs

     Computing kpt #:    24  of    81
     total cpu time spent up to now is       22.6 secs

     Computing kpt #:    25  of    81
     total cpu time spent up to now is       23.5 secs

     Computing kpt #:    26  of    81
     total cpu time spent up to now is       24.4 secs

     Computing kpt #:    27  of    81
     total cpu time spent up to now is       25.3 secs

     Computing kpt #:    28  of    81
     total cpu time spent up to now is       26.1 secs

     Computing kpt #:    29  of    81
     total cpu time spent up to now is       27.0 secs

     Computing kpt #:    30  of    81
     total cpu time spent up to now is       27.9 secs

     Computing kpt #:    31  of    81
     total cpu time spent up to now is       28.7 secs

     Computing kpt #:    32  of    81
     total cpu time spent up to now is       29.6 secs

     Computing kpt #:    33  of    81
     total cpu time spent up to now is       30.4 secs

     Computing kpt #:    34  of    81
     total cpu time spent up to now is       31.4 secs

     Computing kpt #:    35  of    81
     total cpu time spent up to now is       32.2 secs

     Computing kpt #:    36  of    81
     total cpu time spent up to now is       33.1 secs

     Computing kpt #:    37  of    81
     total cpu time spent up to now is       34.0 secs

     Computing kpt #:    38  of    81
     total cpu time spent up to now is       34.9 secs

     Computing kpt #:    39  of    81
     total cpu time spent up to now is       35.7 secs

     Computing kpt #:    40  of    81
     total cpu time spent up to now is       36.6 secs

     Computing kpt #:    41  of    81
     total cpu time spent up to now is       37.4 secs

     Computing kpt #:    42  of    81
     total cpu time spent up to now is       38.4 secs

     Computing kpt #:    43  of    81
     total cpu time spent up to now is       39.4 secs

     Computing kpt #:    44  of    81
     total cpu time spent up to now is       40.3 secs

     Computing kpt #:    45  of    81
     total cpu time spent up to now is       41.3 secs

     Computing kpt #:    46  of    81
     total cpu time spent up to now is       42.2 secs

     Computing kpt #:    47  of    81
     total cpu time spent up to now is       43.1 secs

     Computing kpt #:    48  of    81
     total cpu time spent up to now is       44.0 secs

     Computing kpt #:    49  of    81
     total cpu time spent up to now is       44.9 secs

     Computing kpt #:    50  of    81
     total cpu time spent up to now is       45.8 secs

     Computing kpt #:    51  of    81
     total cpu time spent up to now is       46.7 secs

     Computing kpt #:    52  of    81
     total cpu time spent up to now is       47.6 secs

     Computing kpt #:    53  of    81
     total cpu time spent up to now is       48.5 secs

     Computing kpt #:    54  of    81
     total cpu time spent up to now is       49.4 secs

     Computing kpt #:    55  of    81
     total cpu time spent up to now is       50.3 secs

     Computing kpt #:    56  of    81
     total cpu time spent up to now is       51.2 secs

     Computing kpt #:    57  of    81
     total cpu time spent up to now is       52.2 secs

     Computing kpt #:    58  of    81
     total cpu time spent up to now is       53.2 secs

     Computing kpt #:    59  of    81
     total cpu time spent up to now is       54.2 secs

     Computing kpt #:    60  of    81
     total cpu time spent up to now is       55.2 secs

     Computing kpt #:    61  of    81
     total cpu time spent up to now is       56.1 secs

     Computing kpt #:    62  of    81
     total cpu time spent up to now is       57.0 secs

     Computing kpt #:    63  of    81
     total cpu time spent up to now is       58.0 secs

     Computing kpt #:    64  of    81
     total cpu time spent up to now is       58.9 secs

     Computing kpt #:    65  of    81
     total cpu time spent up to now is       59.9 secs

     Computing kpt #:    66  of    81
     total cpu time spent up to now is       60.8 secs

     Computing kpt #:    67  of    81
     total cpu time spent up to now is       61.7 secs

     Computing kpt #:    68  of    81
     total cpu time spent up to now is       62.6 secs

     Computing kpt #:    69  of    81
     total cpu time spent up to now is       63.6 secs

     Computing kpt #:    70  of    81
     total cpu time spent up to now is       64.6 secs

     Computing kpt #:    71  of    81
     total cpu time spent up to now is       65.5 secs

     Computing kpt #:    72  of    81
     total cpu time spent up to now is       66.5 secs

     Computing kpt #:    73  of    81
     total cpu time spent up to now is       67.5 secs

     Computing kpt #:    74  of    81
     total cpu time spent up to now is       68.4 secs

     Computing kpt #:    75  of    81
     total cpu time spent up to now is       69.3 secs

     Computing kpt #:    76  of    81
     total cpu time spent up to now is       70.2 secs

     Computing kpt #:    77  of    81
     total cpu time spent up to now is       71.1 secs

     Computing kpt #:    78  of    81
     total cpu time spent up to now is       72.1 secs

     Computing kpt #:    79  of    81
     total cpu time spent up to now is       73.0 secs

     Computing kpt #:    80  of    81
     total cpu time spent up to now is       73.9 secs

     Computing kpt #:    81  of    81
     total cpu time spent up to now is       74.8 secs

     ethr =  7.86E-07,  avg # of iterations = 13.5

     total cpu time spent up to now is       74.8 secs

     End of band structure calculation

          k = 0.5000 0.5000 0.5000 ( 10768 PWs)   bands (ev):

   -73.4260 -73.4260 -73.4260 -73.4260 -39.6064 -39.6064 -39.6064 -39.6064
   -39.6038 -39.6038 -39.6038 -39.6038 -39.3550 -39.3550 -39.3550 -39.3550
    -2.3611  -2.3611  -2.3611  -2.3611   0.2259   0.2259   0.2259   0.2259
     6.3693   6.3693   6.3693   6.3693   7.4776   7.4776   7.4776   7.4776
     8.3266   8.3266   8.3266   8.3266  10.5580  10.5580  10.5580  10.5580
    10.8748  10.8748  10.8748  10.8748  11.6573  11.6573  11.6573  11.6573
    11.8102  11.8102  11.8102  11.8102  12.4656  12.4656  12.4656  12.4656
    14.3105  14.3105  14.3105  14.3105  15.2742  15.2742  15.2742  15.2742
    16.1984  16.1984  16.1984  16.1984

          k = 0.4750 0.4750 0.4750 ( 10678 PWs)   bands (ev):

   -73.4259 -73.4259 -73.4259 -73.4259 -39.6063 -39.6062 -39.6062 -39.6062
   -39.6037 -39.6037 -39.6036 -39.6036 -39.3549 -39.3548 -39.3548 -39.3548
    -2.3811  -2.3604  -2.3598  -2.3598   0.2308   0.2308   0.2359   0.2450
     6.3186   6.3629   6.3629   6.3700   7.4513   7.4513   7.4786   7.5421
     8.3247   8.3247   8.3554   8.3554  10.5243  10.5243  10.5478  10.5478
    10.8118  10.8542  10.8542  10.8609  11.6693  11.6779  11.6779  11.7076
    11.8205  11.8205  11.8349  11.8349  12.4643  12.4717  12.4717  12.4723
    14.3093  14.3227  14.3228  14.3228  15.2670  15.2670  15.2793  15.2793
    16.1800  16.1853  16.1976  16.1976

          k = 0.4500 0.4500 0.4500 ( 10711 PWs)   bands (ev):

   -73.4260 -73.4260 -73.4260 -73.4260 -39.6064 -39.6063 -39.6063 -39.6063
   -39.6037 -39.6037 -39.6037 -39.6037 -39.3550 -39.3549 -39.3549 -39.3549
    -2.4387  -2.3581  -2.3561  -2.3561   0.2450   0.2450   0.2655   0.2991
     6.1949   6.3429   6.3429   6.3723   7.3859   7.3859   7.4811   7.7070
     8.3193   8.3193   8.4270   8.4270  10.4317  10.4317  10.5133  10.5133
    10.6594  10.8117  10.8117  10.8219  11.7022  11.7212  11.7212  11.8213
    11.8511  11.8511  11.9037  11.9037  12.4598  12.4891  12.4891  12.4923
    14.3055  14.3579  14.3585  14.3585  15.2449  15.2449  15.2941  15.2941
    16.1259  16.1467  16.1952  16.1952

          k = 0.4250 0.4250 0.4250 ( 10729 PWs)   bands (ev):

   -73.4260 -73.4260 -73.4260 -73.4260 -39.6064 -39.6063 -39.6063 -39.6063
   -39.6039 -39.6039 -39.6037 -39.6037 -39.3550 -39.3550 -39.3549 -39.3549
    -2.5276  -2.3540  -2.3496  -2.3496   0.2678   0.2678   0.3142   0.3806
     6.0433   6.3081   6.3081   6.3773   7.3072   7.3072   7.4839   7.9272
     8.3105   8.3105   8.5124   8.5124  10.3021  10.3021  10.4500  10.4500
    10.4676  10.7634  10.7770  10.7770  11.7499  11.7655  11.7655  11.8983
    11.8983  11.9477  12.0000  12.0001  12.4527  12.5165  12.5165  12.5252
    14.2995  14.4146  14.4162  14.4162  15.2073  15.2073  15.3183  15.3183
    16.0401  16.0858  16.1917  16.1917

          k = 0.4000 0.4000 0.4000 ( 10699 PWs)   bands (ev):

   -73.4260 -73.4259 -73.4259 -73.4259 -39.6063 -39.6062 -39.6061 -39.6061
   -39.6038 -39.6038 -39.6037 -39.6037 -39.3549 -39.3549 -39.3549 -39.3548
    -2.6397  -2.3478  -2.3404  -2.3404   0.2981   0.2981   0.3808   0.4789
     5.8926   6.2579   6.2579   6.3869   7.2345   7.2346   7.4852   8.1735
     8.2988   8.2988   8.5859   8.5859  10.1603  10.1603  10.2630  10.3641
    10.3641  10.6912  10.7599  10.7599  11.8056  11.8083  11.8083  11.9523
    11.9524  12.0598  12.1032  12.1032  12.4440  12.5504  12.5504  12.5694
    14.2922  14.4891  14.4930  14.4930  15.1536  15.1536  15.3517  15.3517
    15.9291  16.0089  16.1883  16.1883

          k = 0.3750 0.3750 0.3750 ( 10705 PWs)   bands (ev):

   -73.4260 -73.4260 -73.4260 -73.4260 -39.6063 -39.6061 -39.6061 -39.6059
   -39.6040 -39.6040 -39.6038 -39.6038 -39.3550 -39.3549 -39.3549 -39.3549
    -2.7671  -2.3389  -2.3282  -2.3282   0.3342   0.3342   0.4639   0.5830
     5.7582   6.1944   6.1944   6.4031   7.1778   7.1778   7.4826   8.2836
     8.2836   8.4295   8.6286   8.6286  10.0241  10.0242  10.0596  10.2709
    10.2709  10.6091  10.7564  10.7564  11.8525  11.8526  11.8644  12.0042
    12.0042  12.1437  12.1996  12.1997  12.4377  12.5861  12.5861  12.6200
    14.2837  14.5743  14.5848  14.5848  15.0836  15.0837  15.3938  15.3938
    15.8011  15.9270  16.1871  16.1871

          k = 0.3500 0.3500 0.3500 ( 10708 PWs)   bands (ev):

   -73.4260 -73.4259 -73.4259 -73.4259 -39.6063 -39.6060 -39.6060 -39.6058
   -39.6042 -39.6042 -39.6038 -39.6038 -39.3550 -39.3549 -39.3549 -39.3549
    -2.9033  -2.3269  -2.3129  -2.3129   0.3740   0.3740   0.5616   0.6831
     5.6493   6.1224   6.1224   6.4288   7.1391   7.1391   7.4738   8.2628
     8.2628   8.6322   8.6322   8.6832   9.8665   9.9006   9.9006  10.1849
    10.1849  10.5187  10.7610  10.7610  11.8993  11.8994  11.9228  12.0500
    12.0500  12.1887  12.2829  12.2829  12.4437  12.6174  12.6174  12.6705
    14.2744  14.6597  14.6869  14.6870  14.9994  14.9994  15.4443  15.4443
    15.6627  15.8582  16.1908  16.1908

          k = 0.3250 0.3250 0.3250 ( 10696 PWs)   bands (ev):

   -73.4260 -73.4259 -73.4259 -73.4259 -39.6063 -39.6059 -39.6059 -39.6056
   -39.6043 -39.6042 -39.6038 -39.6038 -39.3550 -39.3549 -39.3548 -39.3548
    -3.0428  -2.3114  -2.2943  -2.2943   0.4155   0.4155   0.6713   0.7710
     5.5714   6.0490   6.0490   6.4670   7.1161   7.1161   7.4563   8.2306
     8.2306   8.6042   8.6042   8.9228   9.6922   9.7858   9.7859  10.1153
    10.1154  10.4205  10.7696  10.7696  11.9480  11.9480  11.9791  12.0889
    12.0889  12.1895  12.3504  12.3504  12.4703  12.6386  12.6386  12.7149
    14.2637  14.7327  14.7886  14.7887  14.9120  14.9121  15.5026  15.5026
    15.5189  15.8246  16.2021  16.2021

          k = 0.3000 0.3000 0.3000 ( 10681 PWs)   bands (ev):

   -73.4260 -73.4259 -73.4259 -73.4259 -39.6063 -39.6058 -39.6058 -39.6054
   -39.6044 -39.6043 -39.6037 -39.6037 -39.3550 -39.3548 -39.3548 -39.3548
    -3.1815  -2.2923  -2.2726  -2.2726   0.4562   0.4562   0.7860   0.8449
     5.5271   5.9817   5.9817   6.5207   7.1047   7.1047   7.4284   8.1766
     8.1766   8.5674   8.5674   9.1273   9.5526   9.6734   9.6734  10.0606
    10.0606  10.3140  10.7784  10.7785  11.9968  11.9968  12.0327  12.1214
    12.1215  12.1574  12.4015  12.4015  12.5098  12.6454  12.6454  12.7506
    14.2497  14.7771  14.7772  14.7849  14.9393  14.9394  15.3743  15.5672
    15.5672  15.8420  16.2224  16.2224

          k = 0.2750 0.2750 0.2750 ( 10714 PWs)   bands (ev):

   -73.4260 -73.4259 -73.4259 -73.4259 -39.6064 -39.6059 -39.6058 -39.6052
   -39.6046 -39.6045 -39.6038 -39.6038 -39.3551 -39.3549 -39.3549 -39.3549
    -3.3163  -2.2694  -2.2478  -2.2478   0.4939   0.4939   0.8640   0.9403
     5.5163   5.9269   5.9269   6.5931   7.1004   7.1004   7.3892   8.0937
     8.0937   8.5456   8.5456   9.2272   9.5080   9.5610   9.5610  10.0102
    10.0102  10.2010  10.7830  10.7830  12.0436  12.0437  12.0826  12.1109
    12.1483  12.1484  12.4366  12.4366  12.5490  12.6363  12.6364  12.7775
    14.2297  14.6812  14.6813  14.8183  15.0607  15.0608  15.2374  15.6359
    15.6359  15.9079  16.2511  16.2511

          k = 0.2500 0.2500 0.2500 ( 10723 PWs)   bands (ev):

   -73.4261 -73.4259 -73.4259 -73.4259 -39.6064 -39.6059 -39.6058 -39.6050
   -39.6047 -39.6046 -39.6039 -39.6039 -39.3551 -39.3549 -39.3549 -39.3549
    -3.4447  -2.2428  -2.2203  -2.2203   0.5264   0.5264   0.8878   1.0706
     5.5361   5.8895   5.8895   6.6868   7.0996   7.0996   7.3391   7.9875
     7.9875   8.5477   8.5477   9.1765   9.4504   9.4504   9.5843   9.9523
     9.9524  10.0941  10.7790  10.7790  12.0587  12.0863  12.0863  12.1348
    12.1694  12.1695  12.4567  12.4568  12.5795  12.6142  12.6142  12.7969
    14.2010  14.5900  14.5901  14.8341  15.1272  15.1966  15.1966  15.7066
    15.7066  16.0040  16.2857  16.2857

          k = 0.2250 0.2250 0.2250 ( 10729 PWs)   bands (ev):

   -73.4261 -73.4259 -73.4259 -73.4259 -39.6065 -39.6059 -39.6059 -39.6049
   -39.6047 -39.6046 -39.6039 -39.6039 -39.3552 -39.3549 -39.3549 -39.3548
    -3.5649  -2.2130  -2.1904  -2.1904   0.5523   0.5523   0.8839   1.2082
     5.5819   5.8728   5.8728   6.8032   7.0995   7.0995   7.2804   7.8722
     7.8722   8.5693   8.5693   9.0902   9.3442   9.3442   9.6169   9.8792
     9.8793  10.0363  10.7627  10.7627  12.0159  12.1212  12.1212  12.1837
    12.1839  12.1839  12.4632  12.4633  12.5860  12.5861  12.5968  12.8094
    14.1619  14.5146  14.5147  14.8068  15.0878  15.3423  15.3423  15.7780
    15.7780  16.1075  16.3221  16.3221

          k = 0.2000 0.2000 0.2000 ( 10723 PWs)   bands (ev):

   -73.4261 -73.4259 -73.4259 -73.4259 -39.6065 -39.6060 -39.6059 -39.6048
   -39.6047 -39.6045 -39.6039 -39.6039 -39.3552 -39.3549 -39.3549 -39.3548
    -3.6753  -2.1806  -2.1590  -2.1590   0.5706   0.5706   0.8592   1.3461
     5.6482   5.8781   5.8781   6.9407   7.0977   7.0977   7.2175   7.7611
     7.7611   8.6018   8.6018   9.0058   9.2461   9.2461   9.5312   9.7882
     9.7882  10.0627  10.7327  10.7327  11.9832  12.1358  12.1358  12.1974
    12.1974  12.2330  12.4601  12.4601  12.5611  12.5611  12.6002  12.8149
    14.1123  14.4589  14.4590  14.7274  15.1380  15.4943  15.4943  15.8505
    15.8506  16.1994  16.3566  16.3566

          k = 0.1750 0.1750 0.1750 ( 10729 PWs)   bands (ev):

   -73.4262 -73.4259 -73.4259 -73.4259 -39.6065 -39.6060 -39.6060 -39.6047
   -39.6047 -39.6045 -39.6040 -39.6040 -39.3552 -39.3549 -39.3549 -39.3548
    -3.7749  -2.1465  -2.1269  -2.1269   0.5811   0.5811   0.8194   1.4805
     5.7294   5.9047   5.9047   7.0800   7.0920   7.0920   7.1711   7.6649
     7.6649   8.6322   8.6323   8.9197   9.1624   9.1624   9.3835   9.6819
     9.6820  10.1233  10.6892  10.6892  11.9590  12.1123  12.1123  12.2220
    12.2220  12.2827  12.4563  12.4563  12.5437  12.5437  12.5912  12.8135
    14.0517  14.4230  14.4231  14.6352  15.2416  15.6445  15.6446  15.9275
    15.9276  16.2676  16.3875  16.3875

          k = 0.1500 0.1500 0.1500 ( 10729 PWs)   bands (ev):

   -73.4262 -73.4259 -73.4259 -73.4259 -39.6065 -39.6061 -39.6060 -39.6047
   -39.6046 -39.6044 -39.6040 -39.6040 -39.3553 -39.3549 -39.3549 -39.3548
    -3.8627  -2.1118  -2.0951  -2.0951   0.5845   0.5845   0.7702   1.6074
     5.8206   5.9499   5.9499   7.0721   7.0806   7.0806   7.2893   7.5924
     7.5924   8.6395   8.6395   8.8130   9.1055   9.1055   9.2386   9.5691
     9.5691  10.1807  10.6339  10.6339  11.9377  12.0594  12.0594  12.2516
    12.2516  12.3317  12.4590  12.4590  12.5318  12.5318  12.5733  12.8071
    13.9778  14.4040  14.4041  14.5534  15.3746  15.7788  15.7789  16.0149
    16.0150  16.3082  16.4174  16.4174

          k = 0.1250 0.1250 0.1250 ( 10738 PWs)   bands (ev):

   -73.4262 -73.4259 -73.4259 -73.4259 -39.6065 -39.6062 -39.6062 -39.6047
   -39.6046 -39.6042 -39.6040 -39.6040 -39.3553 -39.3549 -39.3549 -39.3548
    -3.9381  -2.0782  -2.0649  -2.0649   0.5822   0.5822   0.7170   1.7231
     5.9172   6.0087   6.0087   7.0216   7.0622   7.0622   7.4636   7.5512
     7.5512   8.5979   8.5979   8.6643   9.0887   9.0888   9.1373   9.4640
     9.4640  10.2255  10.5691  10.5691  11.9133  11.9927  11.9927  12.2806
    12.2806  12.3783  12.4676  12.4677  12.5229  12.5229  12.5517  12.7983
    13.8884  14.3975  14.3976  14.4919  15.5234  15.8831  15.8831  16.1104
    16.1104  16.3241  16.4566  16.4566

          k = 0.1000 0.1000 0.1000 ( 10749 PWs)   bands (ev):

   -73.4262 -73.4259 -73.4259 -73.4259 -39.6066 -39.6064 -39.6063 -39.6047
   -39.6046 -39.6041 -39.6040 -39.6040 -39.3554 -39.3549 -39.3549 -39.3548
    -4.0004  -2.0471  -2.0376  -2.0376   0.5760   0.5760   0.6653   1.8238
     6.0136   6.0742   6.0742   6.9823   7.0385   7.0385   7.5459   7.5459
     7.6341   8.4812   8.5016   8.5016   9.0847   9.1010   9.1010   9.3871
     9.3872  10.2573  10.4980  10.4980  11.8829  11.9251  11.9251  12.3067
    12.3067  12.4200  12.4785  12.4786  12.5161  12.5161  12.5320  12.7893
    13.7870  14.3989  14.3990  14.4524  15.6768  15.9591  15.9592  16.1866
    16.1867  16.3213  16.5237  16.5238

          k = 0.0750 0.0750 0.0750 ( 10761 PWs)   bands (ev):

   -73.4263 -73.4259 -73.4259 -73.4259 -39.6066 -39.6064 -39.6064 -39.6047
   -39.6046 -39.6042 -39.6041 -39.6040 -39.3554 -39.3549 -39.3549 -39.3549
    -4.0493  -2.0205  -2.0146  -2.0146   0.5682   0.5682   0.6197   1.9062
     6.1024   6.1376   6.1376   6.9607   7.0139   7.0139   7.5778   7.5778
     7.7851   8.2923   8.3659   8.3660   9.0642   9.1067   9.1067   9.3612
     9.3613  10.2774  10.4255  10.4255  11.8479  11.8655  11.8655  12.3283
    12.3283  12.4546  12.4889  12.4890  12.5114  12.5114  12.5183  12.7817
    13.6843  14.4042  14.4043  14.4308  15.8238  16.0173  16.0174  16.2212
    16.2213  16.3048  16.6220  16.6221

          k = 0.0500 0.0500 0.0500 ( 10767 PWs)   bands (ev):

   -73.4263 -73.4259 -73.4259 -73.4259 -39.6066 -39.6065 -39.6064 -39.6048
   -39.6047 -39.6041 -39.6041 -39.6040 -39.3555 -39.3549 -39.3549 -39.3549
    -4.0845  -1.9999  -1.9971  -1.9971   0.5607   0.5607   0.5840   1.9674
     6.1743   6.1902   6.1902   6.9585   6.9931   6.9931   7.6456   7.6456
     7.9022   8.1262   8.2102   8.2102   9.0612   9.0917   9.0918   9.3825
     9.3826  10.2882  10.3595  10.3595  11.8145  11.8197  11.8197  12.3444
    12.3444  12.4804  12.4967  12.4968  12.5088  12.5088  12.5114  12.7761
    13.5951  14.4101  14.4102  14.4209  15.9545  16.0637  16.0637  16.2247
    16.2248  16.2767  16.7235  16.7236

          k = 0.0250 0.0250 0.0250 ( 10797 PWs)   bands (ev):

   -73.4263 -73.4260 -73.4260 -73.4260 -39.6067 -39.6066 -39.6066 -39.6049
   -39.6048 -39.6041 -39.6041 -39.6040 -39.3556 -39.3550 -39.3550 -39.3550
    -4.1056  -1.9869  -1.9862  -1.9862   0.5555   0.5555   0.5614   2.0050
     6.2207   6.2247   6.2247   6.9686   6.9797   6.9797   7.7440   7.7440
     7.9630   8.0218   8.0533   8.0533   9.0650   9.0743   9.0743   9.4148
     9.4149  10.2925  10.3114  10.3114  11.7902  11.7911  11.7911  12.3542
    12.3542  12.4959  12.5002  12.5003  12.5087  12.5087  12.5093  12.7725
    13.5342  14.4146  14.4147  14.4171  16.0593  16.0981  16.0981  16.2148
    16.2148  16.2381  16.7977  16.7978

          k = 0.0000 0.0000 0.0000 ( 10827 PWs)   bands (ev):

   -73.4264 -73.4260 -73.4260 -73.4260 -39.6067 -39.6066 -39.6066 -39.6049
   -39.6048 -39.6043 -39.6042 -39.6042 -39.3556 -39.3551 -39.3551 -39.3551
    -4.1127  -1.9825  -1.9825  -1.9825   0.5536   0.5536   0.5536   2.0177
     6.2366   6.2366   6.2366   6.9751   6.9751   6.9751   7.8297   7.8297
     7.9472   7.9472   7.9472   8.0195   9.0674   9.0674   9.0674   9.4289
     9.4290  10.2934  10.2934  10.2935  11.7814  11.7814  11.7814  12.3575
    12.3575  12.5008  12.5009  12.5009  12.5093  12.5093  12.5094  12.7714
    13.5125  14.4161  14.4162  14.4162  16.1125  16.1125  16.1125  16.2077
    16.2077  16.2078  16.8246  16.8247

          k = 0.0000 0.0250 0.0000 ( 10803 PWs)   bands (ev):

   -73.4263 -73.4260 -73.4260 -73.4260 -39.6067 -39.6066 -39.6066 -39.6049
   -39.6048 -39.6041 -39.6041 -39.6040 -39.3556 -39.3550 -39.3550 -39.3550
    -4.1103  -1.9877  -1.9819  -1.9818   0.5544   0.5547   0.5556   2.0135
     6.2265   6.2345   6.2357   6.9638   6.9731   6.9890   7.7586   7.8345
     7.9544   7.9557   8.0149   8.0222   9.0637   9.0671   9.0753   9.4184
     9.4300  10.2894  10.2910  10.3117  11.7808  11.7861  11.7868  12.3549
    12.3580  12.4997  12.4998  12.5009  12.5091  12.5091  12.5096  12.7718
    13.5198  14.4147  14.4157  14.4173  16.0971  16.1043  16.1047  16.2078
    16.2162  16.2184  16.8069  16.8244

          k = 0.0000 0.0500 0.0000 ( 10779 PWs)   bands (ev):

   -73.4263 -73.4260 -73.4259 -73.4259 -39.6066 -39.6065 -39.6065 -39.6048
   -39.6047 -39.6041 -39.6040 -39.6040 -39.3555 -39.3550 -39.3550 -39.3549
    -4.1033  -2.0033  -1.9801  -1.9798   0.5569   0.5579   0.5614   2.0008
     6.1983   6.2281   6.2326   6.9324   6.9669   7.0286   7.6543   7.8487
     7.9758   7.9790   8.0015   8.1384   9.0529   9.0662   9.0992   9.3899
     9.4328  10.2774  10.2840  10.3626  11.7792  11.7999  11.8027  12.3470
    12.3594  12.4943  12.4959  12.4999  12.5086  12.5094  12.5128  12.7729
    13.5413  14.4101  14.4146  14.4209  16.0622  16.0819  16.0850  16.2078
    16.2362  16.2385  16.7545  16.8231

          k = 0.0000 0.0750 0.0000 ( 10779 PWs)   bands (ev):

   -73.4263 -73.4260 -73.4259 -73.4259 -39.6067 -39.6065 -39.6065 -39.6048
   -39.6047 -39.6041 -39.6041 -39.6040 -39.3555 -39.3550 -39.3549 -39.3549
    -4.0915  -2.0290  -1.9771  -1.9766   0.5610   0.5633   0.5708   1.9801
     6.1572   6.2173   6.2266   6.8869   6.9559   7.0892   7.5520   7.8715
     7.9802   8.0106   8.0109   8.2604   9.0352   9.0654   9.1396   9.3509
     9.4375  10.2581  10.2726  10.4376  11.7771  11.8216  11.8284  12.3338
    12.3616  12.4832  12.4895  12.4966  12.5081  12.5117  12.5197  12.7748
    13.5760  14.4026  14.4131  14.4268  16.0188  16.0457  16.0612  16.2076
    16.2573  16.2611  16.6716  16.8205

          k = 0.0000 0.1000 0.0000 ( 10779 PWs)   bands (ev):

   -73.4263 -73.4260 -73.4259 -73.4259 -39.6067 -39.6065 -39.6064 -39.6048
   -39.6047 -39.6041 -39.6041 -39.6040 -39.3555 -39.3550 -39.3549 -39.3549
    -4.0751  -2.0640  -1.9730  -1.9722   0.5666   0.5710   0.5833   1.9517
     6.1086   6.2019   6.2164   6.8348   6.9394   7.1661   7.4558   7.9017
     7.9528   8.0450   8.0573   8.3839   9.0115   9.0657   9.1966   9.3088
     9.4440  10.2326  10.2574  10.5271  11.7754  11.8497  11.8627  12.3157
    12.3646  12.4669  12.4813  12.4909  12.5076  12.5163  12.5303  12.7774
    13.6222  14.3923  14.4114  14.4355  15.9710  15.9986  16.0357  16.2071
    16.2709  16.2880  16.5636  16.8158

          k = 0.0000 0.1250 0.0000 ( 10771 PWs)   bands (ev):

   -73.4263 -73.4259 -73.4259 -73.4259 -39.6066 -39.6064 -39.6064 -39.6048
   -39.6047 -39.6041 -39.6041 -39.6040 -39.3555 -39.3550 -39.3549 -39.3549
    -4.0540  -2.1079  -1.9680  -1.9668   0.5737   0.5808   0.5982   1.9161
     6.0569   6.1817   6.2002   6.7832   6.9163   7.2557   7.3673   7.9218
     7.9376   8.0759   8.1140   8.5066   8.9828   9.0689   9.2688   9.2700
     9.4524  10.2019  10.2391  10.6230  11.7752  11.8822  11.9042  12.2934
    12.3683  12.4455  12.4715  12.4834  12.5072  12.5229  12.5445  12.7806
    13.6780  14.3797  14.4102  14.4474  15.9206  15.9436  16.0096  16.2058
    16.2778  16.3154  16.4362  16.8087

          k = 0.0000 0.1500 0.0000 ( 10743 PWs)   bands (ev):

   -73.4262 -73.4259 -73.4259 -73.4259 -39.6066 -39.6063 -39.6063 -39.6048
   -39.6045 -39.6041 -39.6040 -39.6040 -39.3554 -39.3550 -39.3549 -39.3548
    -4.0284  -2.1596  -1.9620  -1.9603   0.5822   0.5930   0.6151   1.8742
     6.0053   6.1567   6.1764   6.7380   6.8856   7.2876   7.3558   7.8899
     7.9769   8.1005   8.1782   8.6261   8.9507   9.0775   9.2335   9.3583
     9.4626  10.1672  10.2181  10.7181  11.7773  11.9172  11.9515  12.2679
    12.3726  12.4189  12.4613  12.4742  12.5068  12.5314  12.5623  12.7842
    13.7411  14.3652  14.4104  14.4630  15.8689  15.8839  15.9838  16.2034
    16.2771  16.2948  16.3426  16.7986

          k = 0.0000 0.1750 0.0000 ( 10751 PWs)   bands (ev):

   -73.4262 -73.4259 -73.4259 -73.4259 -39.6065 -39.6063 -39.6063 -39.6049
   -39.6045 -39.6042 -39.6040 -39.6040 -39.3554 -39.3550 -39.3549 -39.3548
    -3.9982  -2.2183  -1.9552  -1.9531   0.5920   0.6075   0.6330   1.8266
     5.9561   6.1269   6.1439   6.7031   6.8461   7.2171   7.4647   7.8603
     8.0170   8.1175   8.2470   8.7390   8.9171   9.0961   9.2042   9.4592
     9.4746  10.1295  10.1950  10.8058  11.7823  11.9526  12.0026  12.2411
    12.3775  12.3869  12.4513  12.4633  12.5064  12.5419  12.5838  12.7880
    13.8096  14.3492  14.4122  14.4829  15.8166  15.8231  15.9585  16.1438
    16.1991  16.2679  16.3687  16.7854

          k = 0.0000 0.2000 0.0000 ( 10751 PWs)   bands (ev):

   -73.4262 -73.4259 -73.4259 -73.4259 -39.6065 -39.6063 -39.6063 -39.6049
   -39.6045 -39.6042 -39.6041 -39.6040 -39.3554 -39.3550 -39.3549 -39.3548
    -3.9636  -2.2830  -1.9478  -1.9452   0.6029   0.6245   0.6515   1.7742
     5.9110   6.0927   6.1032   6.6803   6.7975   7.1561   7.5814   7.8355
     8.0552   8.1271   8.3159   8.8398   8.8856   9.1315   9.1807   9.4883
     9.5695  10.0897  10.1703  10.8795  11.7908  11.9868  12.0561  12.2159
    12.3496  12.3828  12.4425  12.4508  12.5061  12.5545  12.6087  12.7919
    13.8815  14.3325  14.4167  14.5078  15.7641  15.7647  15.9342  15.9873
    16.1924  16.2500  16.3932  16.7691

          k = 0.0000 0.2250 0.0000 ( 10743 PWs)   bands (ev):

   -73.4262 -73.4259 -73.4259 -73.4259 -39.6064 -39.6062 -39.6062 -39.6050
   -39.6044 -39.6043 -39.6041 -39.6040 -39.3553 -39.3550 -39.3549 -39.3548
    -3.9246  -2.3530  -1.9399  -1.9369   0.6148   0.6439   0.6697   1.7178
     5.8713   6.0548   6.0562   6.6691   6.7399   7.1043   7.7048   7.8175
     8.0887   8.1303   8.3786   8.8616   8.9224   9.1625   9.1909   9.5038
     9.6857  10.0483  10.1442  10.9323  11.8024  12.0184  12.1104  12.1963
    12.3071  12.3884  12.4359  12.4366  12.5059  12.5694  12.6366  12.7955
    13.9550  14.3155  14.4250  14.5382  15.7081  15.7138  15.8302  15.9112
    16.1821  16.2229  16.4155  16.7499

          k = 0.0000 0.2500 0.0000 ( 10699 PWs)   bands (ev):

   -73.4262 -73.4259 -73.4259 -73.4259 -39.6063 -39.6061 -39.6060 -39.6049
   -39.6043 -39.6042 -39.6041 -39.6039 -39.3552 -39.3549 -39.3548 -39.3547
    -3.8813  -2.4271  -1.9317  -1.9284   0.6275   0.6660   0.6871   1.6583
     5.8380   6.0057   6.0141   6.6679   6.6743   7.0611   7.8075   7.8338
     8.1152   8.1283   8.4261   8.8539   8.9872   9.1485   9.2753   9.5209
     9.8042  10.0062  10.1172  10.9579  11.8167  12.0465  12.1641  12.1865
    12.2604  12.3942  12.4207  12.4325  12.5059  12.5865  12.6663  12.7985
    14.0286  14.2993  14.4377  14.5749  15.6355  15.6647  15.6972  15.8899
    16.1672  16.1866  16.4350  16.7280

          k = 0.0000 0.2750 0.0000 ( 10727 PWs)   bands (ev):

   -73.4262 -73.4259 -73.4259 -73.4259 -39.6063 -39.6061 -39.6061 -39.6050
   -39.6044 -39.6042 -39.6042 -39.6040 -39.3552 -39.3549 -39.3549 -39.3548
    -3.8338  -2.5047  -1.9234  -1.9198   0.6408   0.6907   0.7032   1.5965
     5.8117   5.9545   5.9717   6.6021   6.6744   7.0254   7.8058   7.9670
     8.1225   8.1333   8.4487   8.8718   9.0423   9.1376   9.3769   9.5395
     9.9185   9.9663  10.0893  10.9517  11.8326  12.0698  12.1895  12.2107
    12.2154  12.3999  12.4029  12.4329  12.5062  12.6058  12.6966  12.8001
    14.1013  14.2844  14.4551  14.6179  15.4938  15.6180  15.6446  15.8703
    16.1408  16.1464  16.4512  16.7039

          k = 0.0000 0.3000 0.0000 ( 10723 PWs)   bands (ev):

   -73.4262 -73.4260 -73.4259 -73.4259 -39.6064 -39.6060 -39.6060 -39.6050
   -39.6044 -39.6043 -39.6042 -39.6040 -39.3552 -39.3550 -39.3549 -39.3547
    -3.7823  -2.5849  -1.9152  -1.9115   0.6544   0.7176   0.7183   1.5332
     5.7932   5.9050   5.9291   6.5253   6.6868   6.9960   7.8121   8.1020
     8.1142   8.1428   8.4446   8.9180   9.0952   9.1286   9.4874   9.5596
     9.9167  10.0370  10.0610  10.9124  11.8492  12.0852  12.1630  12.2060
    12.2632  12.3835  12.4057  12.4376  12.5072  12.6272  12.7262  12.8000
    14.1723  14.2719  14.4773  14.6676  15.3399  15.5744  15.6187  15.8525
    16.0861  16.1188  16.4640  16.6781

          k = 0.0000 0.3250 0.0000 ( 10736 PWs)   bands (ev):

   -73.4262 -73.4260 -73.4259 -73.4259 -39.6063 -39.6060 -39.6060 -39.6051
   -39.6044 -39.6044 -39.6042 -39.6041 -39.3552 -39.3550 -39.3549 -39.3547
    -3.7269  -2.6670  -1.9073  -1.9036   0.6682   0.7299   0.7487   1.4690
     5.7828   5.8590   5.8875   6.4457   6.7034   6.9716   7.8257   8.1046
     8.1443   8.2334   8.4237   8.9864   9.1202   9.1495   9.5809   9.6019
     9.8732  10.0323  10.1399  10.8422  11.8648  12.0739  12.1380  12.2339
    12.3059  12.3626  12.4113  12.4469  12.5094  12.6506  12.7533  12.7974
    14.2413  14.2630  14.5038  14.7238  15.1893  15.5346  15.6060  15.8364
    16.0231  16.0834  16.4734  16.6512

          k = 0.0000 0.3500 0.0000 ( 10720 PWs)   bands (ev):

   -73.4261 -73.4260 -73.4259 -73.4259 -39.6062 -39.6059 -39.6059 -39.6052
   -39.6044 -39.6043 -39.6042 -39.6041 -39.3552 -39.3549 -39.3549 -39.3547
    -3.6677  -2.7504  -1.8999  -1.8963   0.6819   0.7398   0.7820   1.4048
     5.7809   5.8180   5.8481   6.3654   6.7227   6.9511   7.8460   8.0948
     8.1396   8.3267   8.4261   9.0697   9.1111   9.2057   9.6034   9.7176
     9.8287  10.0037  10.2304  10.7457  11.8782  12.0311  12.1436  12.2692
    12.3407  12.3424  12.4167  12.4598  12.5141  12.6754  12.7770  12.7919
    14.2590  14.3079  14.5332  14.7861  15.0453  15.4994  15.6044  15.8217
    15.9533  16.0399  16.4797  16.6241

          k = 0.0000 0.3750 0.0000 ( 10708 PWs)   bands (ev):

   -73.4261 -73.4260 -73.4259 -73.4259 -39.6060 -39.6058 -39.6058 -39.6052
   -39.6044 -39.6043 -39.6042 -39.6041 -39.3552 -39.3549 -39.3548 -39.3547
    -3.6050  -2.8343  -1.8931  -1.8899   0.6952   0.7472   0.8184   1.3410
     5.7829   5.7877   5.8121   6.2860   6.7439   6.9331   7.8722   8.0858
     8.1303   8.3111   8.5245   9.1000   9.1643   9.2632   9.6265   9.7834
     9.8324   9.9757  10.3037  10.6286  11.8881  11.9845  12.1555  12.3076
    12.3181  12.3716  12.4219  12.4733  12.5243  12.7009  12.7826  12.7959
    14.2612  14.3717  14.5631  14.8542  14.9099  15.4688  15.6124  15.8076
    15.8794  15.9885  16.4834  16.5975

          k = 0.0000 0.4000 0.0000 ( 10724 PWs)   bands (ev):

   -73.4261 -73.4260 -73.4259 -73.4259 -39.6060 -39.6058 -39.6058 -39.6054
   -39.6045 -39.6044 -39.6043 -39.6042 -39.3552 -39.3550 -39.3549 -39.3547
    -3.5389  -2.9182  -1.8873  -1.8844   0.7079   0.7520   0.8579   1.2783
     5.7543   5.7804   5.8031   6.2090   6.7658   6.9166   7.9036   8.0784
     8.1186   8.2664   8.6386   9.0854   9.2689   9.3209   9.6496   9.7373
     9.9443   9.9491  10.3555  10.4965  11.8937  11.9438  12.1678  12.2955
    12.3453  12.3934  12.4270  12.4825  12.5435  12.7262  12.7691  12.8094
    14.2709  14.4318  14.5903  14.7851  14.9274  15.4420  15.6279  15.7935
    15.8059  15.9308  16.4855  16.5724

          k = 0.0000 0.4250 0.0000 ( 10724 PWs)   bands (ev):

   -73.4261 -73.4259 -73.4259 -73.4259 -39.6059 -39.6058 -39.6057 -39.6055
   -39.6045 -39.6044 -39.6042 -39.6042 -39.3552 -39.3550 -39.3549 -39.3547
    -3.4695  -3.0017  -1.8824  -1.8802   0.7195   0.7542   0.9005   1.2171
     5.7327   5.7539   5.8272   6.1358   6.7879   6.9006   7.9395   8.0734
     8.1060   8.2169   8.7421   9.0659   9.3781   9.3825   9.6718   9.6903
     9.9259  10.0508  10.3551  10.3824  11.8946  11.9126  12.1800  12.2739
    12.3789  12.4084  12.4326  12.4861  12.5710  12.7504  12.7509  12.8171
    14.2901  14.4870  14.6110  14.6725  15.0054  15.4147  15.6487  15.7414
    15.7785  15.8693  16.4872  16.5496

          k = 0.0000 0.4500 0.0000 ( 10724 PWs)   bands (ev):

   -73.4261 -73.4260 -73.4259 -73.4259 -39.6059 -39.6058 -39.6057 -39.6055
   -39.6045 -39.6044 -39.6043 -39.6042 -39.3552 -39.3550 -39.3548 -39.3547
    -3.3973  -3.0843  -1.8787  -1.8771   0.7300   0.7538   0.9461   1.1579
     5.7184   5.7333   5.8598   6.0675   6.8094   6.8844   7.9793   8.0712
     8.0941   8.1666   8.8305   9.0399   9.4341   9.5008   9.6421   9.6904
     9.9103  10.1490  10.2111  10.3826  11.8918  11.8928  12.1924  12.2537
    12.4047  12.4177  12.4404  12.4847  12.6031  12.7280  12.7722  12.8189
    14.3200  14.5354  14.5733  14.6214  15.0869  15.3777  15.6725  15.6984
    15.7617  15.8080  16.4897  16.5300

          k = 0.0000 0.4750 0.0000 ( 10716 PWs)   bands (ev):

   -73.4261 -73.4260 -73.4259 -73.4259 -39.6058 -39.6057 -39.6056 -39.6055
   -39.6045 -39.6045 -39.6043 -39.6042 -39.3551 -39.3550 -39.3548 -39.3547
    -3.3223  -3.1655  -1.8763  -1.8755   0.7389   0.7510   0.9948   1.1009
     5.7114   5.7191   5.9006   6.0050   6.8300   6.8675   8.0225   8.0723
     8.0840   8.1168   8.9029   9.0054   9.4886   9.5925   9.6100   9.6990
     9.9149  10.0746  10.2355  10.3563  11.8838  11.8870  12.2054  12.2357
    12.4186  12.4224  12.4532  12.4786  12.6369  12.7008  12.7908  12.8149
    14.3623  14.4885  14.5750  14.6192  15.1699  15.3225  15.6881  15.6971
    15.7426  15.7521  16.4944  16.5142

          k = 0.0000 0.5000 0.0000 ( 10676 PWs)   bands (ev):

   -73.4261 -73.4261 -73.4258 -73.4258 -39.6056 -39.6056 -39.6053 -39.6053
   -39.6045 -39.6045 -39.6042 -39.6042 -39.3549 -39.3549 -39.3547 -39.3547
    -3.2449  -3.2449  -1.8752  -1.8752   0.7460   0.7460   1.0465   1.0465
     5.7117   5.7117   5.9492   5.9492   6.8494   6.8494   8.0685   8.0685
     8.0766   8.0766   8.9605   8.9605   9.5414   9.5414   9.6803   9.6803
     9.9665   9.9665  10.3060  10.3060  11.8832  11.8832  12.2197  12.2197
    12.4232  12.4232  12.4676  12.4676  12.6701  12.6701  12.8054  12.8054
    14.4183  14.4183  14.6035  14.6035  15.2507  15.2507  15.7091  15.7091
    15.7209  15.7209  16.5024  16.5024

          k = 0.0250 0.5000 0.0000 ( 10728 PWs)   bands (ev):

   -73.4261 -73.4261 -73.4259 -73.4259 -39.6058 -39.6058 -39.6056 -39.6056
   -39.6045 -39.6045 -39.6042 -39.6042 -39.3551 -39.3551 -39.3548 -39.3548
    -3.2429  -3.2429  -1.8770  -1.8770   0.7460   0.7460   1.0441   1.0441
     5.7180   5.7180   5.9467   5.9467   6.8392   6.8392   8.0660   8.0660
     8.0898   8.0898   8.9603   8.9603   9.5389   9.5389   9.6703   9.6703
     9.9858   9.9858  10.3066  10.3066  11.8819  11.8819  12.2204  12.2204
    12.4202  12.4202  12.4662  12.4662  12.6698  12.6698  12.8048  12.8048
    14.4175  14.4175  14.6022  14.6022  15.2515  15.2515  15.7117  15.7117
    15.7120  15.7120  16.5074  16.5074

          k = 0.0500 0.5000 0.0000 ( 10718 PWs)   bands (ev):

   -73.4260 -73.4260 -73.4259 -73.4259 -39.6058 -39.6058 -39.6056 -39.6056
   -39.6044 -39.6044 -39.6042 -39.6042 -39.3551 -39.3551 -39.3547 -39.3547
    -3.2369  -3.2369  -1.8827  -1.8827   0.7461   0.7461   1.0372   1.0372
     5.7368   5.7368   5.9395   5.9395   6.8102   6.8102   8.0587   8.0587
     8.1277   8.1277   8.9598   8.9598   9.5316   9.5316   9.6466   9.6466
    10.0371  10.0371  10.3083  10.3083  11.8783  11.8783  12.2228  12.2228
    12.4114  12.4114  12.4625  12.4625  12.6694  12.6694  12.8032  12.8032
    14.4152  14.4152  14.5983  14.5983  15.2537  15.2537  15.6866  15.6866
    15.7197  15.7197  16.5211  16.5211

          k = 0.0750 0.5000 0.0000 ( 10710 PWs)   bands (ev):

   -73.4260 -73.4260 -73.4259 -73.4259 -39.6058 -39.6058 -39.6055 -39.6055
   -39.6044 -39.6044 -39.6042 -39.6042 -39.3551 -39.3551 -39.3548 -39.3548
    -3.2270  -3.2270  -1.8921  -1.8921   0.7464   0.7464   1.0260   1.0260
     5.7670   5.7670   5.9276   5.9276   6.7669   6.7669   8.0472   8.0472
     8.1863   8.1863   8.9591   8.9591   9.5199   9.5199   9.6189   9.6189
    10.1089  10.1089  10.3108  10.3108  11.8726  11.8726  12.2271  12.2271
    12.3954  12.3954  12.4575  12.4575  12.6690  12.6690  12.8005  12.8005
    14.4116  14.4116  14.5921  14.5921  15.2568  15.2568  15.6479  15.6479
    15.7327  15.7327  16.5402  16.5402

          k = 0.1000 0.5000 0.0000 ( 10716 PWs)   bands (ev):

   -73.4260 -73.4260 -73.4259 -73.4259 -39.6058 -39.6058 -39.6056 -39.6056
   -39.6044 -39.6044 -39.6042 -39.6042 -39.3551 -39.3551 -39.3548 -39.3548
    -3.2131  -3.2131  -1.9054  -1.9054   0.7466   0.7466   1.0110   1.0110
     5.8069   5.8069   5.9114   5.9114   6.7150   6.7150   8.0325   8.0325
     8.2606   8.2606   8.9583   8.9583   9.5043   9.5043   9.5928   9.5928
    10.1938  10.1939  10.3137  10.3137  11.8654  11.8654  12.2333  12.2333
    12.3715  12.3715  12.4523  12.4523  12.6690  12.6690  12.7968  12.7968
    14.4068  14.4068  14.5840  14.5840  15.2598  15.2598  15.5999  15.5999
    15.7504  15.7504  16.5607  16.5607

          k = 0.1250 0.5000 0.0000 ( 10728 PWs)   bands (ev):

   -73.4260 -73.4260 -73.4259 -73.4259 -39.6058 -39.6058 -39.6056 -39.6056
   -39.6045 -39.6045 -39.6043 -39.6043 -39.3551 -39.3551 -39.3548 -39.3548
    -3.1954  -3.1954  -1.9225  -1.9225   0.7470   0.7470   0.9930   0.9930
     5.8535   5.8535   5.8914   5.8914   6.6609   6.6609   8.0154   8.0154
     8.3457   8.3457   8.9577   8.9577   9.4854   9.4854   9.5701   9.5701
    10.2870  10.2870  10.3166  10.3166  11.8572  11.8572  12.2418  12.2418
    12.3400  12.3400  12.4467  12.4467  12.6694  12.6694  12.7922  12.7922
    14.4011  14.4011  14.5743  14.5743  15.2619  15.2619  15.5461  15.5461
    15.7722  15.7722  16.5789  16.5789

          k = 0.1500 0.5000 0.0000 ( 10724 PWs)   bands (ev):

   -73.4260 -73.4260 -73.4259 -73.4259 -39.6058 -39.6058 -39.6056 -39.6056
   -39.6045 -39.6045 -39.6042 -39.6042 -39.3551 -39.3551 -39.3548 -39.3548
    -3.1739  -3.1739  -1.9434  -1.9434   0.7473   0.7473   0.9726   0.9726
     5.8681   5.8681   5.9023   5.9023   6.6116   6.6116   7.9971   7.9971
     8.4374   8.4374   8.9572   8.9572   9.4642   9.4642   9.5514   9.5514
    10.3192  10.3192  10.3845  10.3845  11.8489  11.8489  12.2528  12.2528
    12.3021  12.3021  12.4409  12.4409  12.6703  12.6703  12.7868  12.7868
    14.3950  14.3950  14.5637  14.5637  15.2620  15.2620  15.4896  15.4896
    15.7972  15.7972  16.5916  16.5916

          k = 0.1750 0.5000 0.0000 ( 10726 PWs)   bands (ev):

   -73.4260 -73.4260 -73.4259 -73.4259 -39.6058 -39.6058 -39.6056 -39.6056
   -39.6045 -39.6045 -39.6042 -39.6042 -39.3550 -39.3550 -39.3549 -39.3549
    -3.1486  -3.1486  -1.9681  -1.9681   0.7476   0.7476   0.9506   0.9506
     5.8422   5.8422   5.9465   5.9465   6.5754   6.5754   7.9784   7.9784
     8.5320   8.5320   8.9569   8.9569   9.4416   9.4416   9.5363   9.5363
    10.3211  10.3211  10.4830  10.4830  11.8412  11.8412  12.2593  12.2593
    12.2663  12.2663  12.4344  12.4344  12.6716  12.6716  12.7806  12.7806
    14.3892  14.3892  14.5530  14.5530  15.2590  15.2590  15.4323  15.4323
    15.8244  15.8245  16.5966  16.5966

          k = 0.2000 0.5000 0.0000 ( 10712 PWs)   bands (ev):

   -73.4260 -73.4260 -73.4259 -73.4259 -39.6058 -39.6058 -39.6056 -39.6056
   -39.6044 -39.6044 -39.6042 -39.6042 -39.3550 -39.3550 -39.3548 -39.3548
    -3.1198  -3.1198  -1.9966  -1.9966   0.7478   0.7478   0.9278   0.9278
     5.8145   5.8145   5.9769   5.9769   6.5620   6.5620   7.9598   7.9598
     8.6263   8.6263   8.9568   8.9568   9.4190   9.4190   9.5246   9.5246
    10.3224  10.3224  10.5787  10.5787  11.8351  11.8351  12.2140  12.2140
    12.2823  12.2823  12.4271  12.4271  12.6733  12.6733  12.7736  12.7736
    14.3848  14.3848  14.5429  14.5429  15.2523  15.2523  15.3758  15.3758
    15.8529  15.8529  16.5925  16.5925

          k = 0.2250 0.5000 0.0000 ( 10722 PWs)   bands (ev):

   -73.4260 -73.4260 -73.4259 -73.4259 -39.6058 -39.6058 -39.6056 -39.6056
   -39.6045 -39.6045 -39.6042 -39.6042 -39.3550 -39.3550 -39.3548 -39.3548
    -3.0875  -3.0875  -2.0288  -2.0288   0.7480   0.7480   0.9050   0.9050
     5.7858   5.7858   5.9855   5.9855   6.5796   6.5796   7.9416   7.9416
     8.7171   8.7171   8.9567   8.9567   9.3976   9.3976   9.5158   9.5158
    10.3233  10.3233  10.6676  10.6676  11.8314  11.8314  12.1686  12.1686
    12.3006  12.3006  12.4191  12.4191  12.6752  12.6752  12.7660  12.7660
    14.3825  14.3825  14.5340  14.5340  15.2410  15.2410  15.3205  15.3205
    15.8814  15.8814  16.5786  16.5786

          k = 0.2500 0.5000 0.0000 ( 10724 PWs)   bands (ev):

   -73.4260 -73.4260 -73.4259 -73.4259 -39.6058 -39.6058 -39.6057 -39.6057
   -39.6045 -39.6045 -39.6042 -39.6042 -39.3550 -39.3550 -39.3549 -39.3549
    -3.0519  -3.0519  -2.0646  -2.0646   0.7481   0.7481   0.8827   0.8827
     5.7570   5.7570   5.9714   5.9714   6.6287   6.6287   7.9237   7.9237
     8.8009   8.8009   8.9565   8.9565   9.3797   9.3797   9.5095   9.5095
    10.3243  10.3243  10.7452  10.7452  11.8306  11.8306  12.1266  12.1266
    12.3208  12.3208  12.4103  12.4103  12.6773  12.6773  12.7580  12.7580
    14.3838  14.3838  14.5272  14.5272  15.2245  15.2245  15.2666  15.2666
    15.9093  15.9093  16.5553  16.5554

          k = 0.2750 0.5000 0.0000 ( 10724 PWs)   bands (ev):

   -73.4260 -73.4260 -73.4259 -73.4259 -39.6059 -39.6059 -39.6057 -39.6057
   -39.6044 -39.6044 -39.6042 -39.6042 -39.3550 -39.3550 -39.3549 -39.3549
    -3.0132  -3.0132  -2.1039  -2.1039   0.7482   0.7482   0.8615   0.8615
     5.7290   5.7290   5.9405   5.9405   6.7027   6.7027   7.9058   7.9058
     8.8739   8.8739   8.9560   8.9560   9.3677   9.3677   9.5052   9.5052
    10.3262  10.3262  10.8069  10.8069  11.8333  11.8333  12.0913  12.0913
    12.3423  12.3423  12.4009  12.4009  12.6795  12.6795  12.7496  12.7496
    14.3899  14.3899  14.5235  14.5235  15.2023  15.2023  15.2138  15.2138
    15.9357  15.9357  16.5235  16.5235

          k = 0.3000 0.5000 0.0000 ( 10718 PWs)   bands (ev):

   -73.4260 -73.4260 -73.4259 -73.4259 -39.6059 -39.6059 -39.6056 -39.6056
   -39.6044 -39.6044 -39.6042 -39.6042 -39.3550 -39.3550 -39.3549 -39.3549
    -2.9715  -2.9715  -2.1464  -2.1464   0.7481   0.7481   0.8419   0.8419
     5.7027   5.7027   5.9003   5.9003   6.7931   6.7931   7.8870   7.8870
     8.9319   8.9319   8.9552   8.9552   9.3647   9.3647   9.5028   9.5028
    10.3303  10.3303  10.8485  10.8485  11.8397  11.8397  12.0657  12.0657
    12.3644  12.3644  12.3914  12.3914  12.6819  12.6819  12.7411  12.7411
    14.4018  14.4019  14.5237  14.5237  15.1616  15.1616  15.1740  15.1740
    15.9605  15.9605  16.4846  16.4846

          k = 0.3250 0.5000 0.0000 ( 10722 PWs)   bands (ev):

   -73.4260 -73.4260 -73.4259 -73.4259 -39.6059 -39.6059 -39.6057 -39.6057
   -39.6044 -39.6044 -39.6042 -39.6042 -39.3550 -39.3550 -39.3549 -39.3549
    -2.9271  -2.9271  -2.1918  -2.1918   0.7481   0.7481   0.8242   0.8242
     5.6788   5.6788   5.8565   5.8565   6.8933   6.8933   7.8666   7.8666
     8.9540   8.9540   8.9716   8.9716   9.3728   9.3728   9.5019   9.5019
    10.3379  10.3379  10.8674  10.8674  11.8500  11.8500  12.0510  12.0510
    12.3827  12.3827  12.3859  12.3859  12.6843  12.6843  12.7327  12.7327
    14.4207  14.4207  14.5286  14.5286  15.1094  15.1094  15.1394  15.1394
    15.9836  15.9836  16.4406  16.4406

          k = 0.3500 0.5000 0.0000 ( 10720 PWs)   bands (ev):

   -73.4260 -73.4260 -73.4259 -73.4259 -39.6059 -39.6059 -39.6057 -39.6057
   -39.6043 -39.6043 -39.6042 -39.6042 -39.3550 -39.3550 -39.3549 -39.3549
    -2.8802  -2.8802  -2.2399  -2.2399   0.7481   0.7481   0.8085   0.8085
     5.6582   5.6582   5.8127   5.8127   6.9983   6.9983   7.8432   7.8432
     8.9526   8.9526   8.9930   8.9930   9.3914   9.3914   9.5023   9.5023
    10.3505  10.3505  10.8636  10.8636  11.8640  11.8640  12.0458  12.0458
    12.3762  12.3762  12.4057  12.4057  12.6868  12.6868  12.7247  12.7247
    14.4472  14.4472  14.5389  14.5389  15.0566  15.0566  15.0984  15.0984
    16.0053  16.0053  16.3936  16.3936

          k = 0.3750 0.5000 0.0000 ( 10732 PWs)   bands (ev):

   -73.4260 -73.4260 -73.4260 -73.4260 -39.6059 -39.6059 -39.6058 -39.6058
   -39.6043 -39.6043 -39.6042 -39.6042 -39.3550 -39.3550 -39.3549 -39.3549
    -2.8310  -2.8310  -2.2902  -2.2902   0.7482   0.7482   0.7949   0.7949
     5.6415   5.6415   5.7712   5.7712   7.1044   7.1044   7.8155   7.8155
     8.9512   8.9512   8.9997   8.9997   9.4162   9.4162   9.5036   9.5036
    10.3694  10.3694  10.8397  10.8397  11.8815  11.8815  12.0460  12.0460
    12.3734  12.3734  12.4223  12.4223  12.6894  12.6894  12.7174  12.7174
    14.4816  14.4816  14.5553  14.5553  15.0027  15.0027  15.0512  15.0512
    16.0262  16.0262  16.3459  16.3459

          k = 0.4000 0.5000 0.0000 ( 10720 PWs)   bands (ev):

   -73.4260 -73.4260 -73.4260 -73.4260 -39.6058 -39.6058 -39.6058 -39.6058
   -39.6043 -39.6043 -39.6042 -39.6042 -39.3550 -39.3550 -39.3549 -39.3549
[...]
     8.9503   8.9503   8.9968   8.9968   9.4421   9.4421   9.5054   9.5054
    10.3958  10.3958  10.8001  10.8001  11.9019  11.9019  12.0465  12.0465
    12.3760  12.3760  12.4346  12.4346  12.6919  12.6919  12.7113  12.7113
    14.5237  14.5237  14.5782  14.5782  14.9480  14.9480  14.9984  14.9984
    16.0469  16.0469  16.2992  16.2992

          k = 0.4250 0.5000 0.0000 ( 10712 PWs)   bands (ev):

   -73.4260 -73.4260 -73.4260 -73.4260 -39.6058 -39.6058 -39.6057 -39.6057
   -39.6042 -39.6042 -39.6042 -39.6042 -39.3549 -39.3549 -39.3549 -39.3549
    -2.7271  -2.7271  -2.3963  -2.3963   0.7494   0.7494   0.7740   0.7740
     5.6223   5.6223   5.7005   5.7005   7.3088   7.3088   7.7414   7.7414
     8.9505   8.9505   8.9889   8.9889   9.4651   9.4651   9.5071   9.5071
    10.4301  10.4301  10.7496  10.7496  11.9246  11.9246  12.0426  12.0426
    12.3843  12.3843  12.4413  12.4413  12.6943  12.6943  12.7066  12.7066
    14.5730  14.5730  14.6078  14.6078  14.8927  14.8927  14.9407  14.9407
    16.0684  16.0684  16.2551  16.2551

          k = 0.4500 0.5000 0.0000 ( 10710 PWs)   bands (ev):

   -73.4260 -73.4260 -73.4259 -73.4259 -39.6058 -39.6058 -39.6057 -39.6057
   -39.6043 -39.6043 -39.6042 -39.6042 -39.3549 -39.3549 -39.3549 -39.3549
    -2.6731  -2.6731  -2.4512  -2.4512   0.7508   0.7508   0.7664   0.7664
     5.6207   5.6207   5.6729   5.6729   7.4028   7.4028   7.6925   7.6925
     8.9521   8.9521   8.9792   8.9792   9.4832   9.4832   9.5080   9.5080
    10.4723  10.4723  10.6930  10.6930  11.9487  11.9487  12.0326  12.0326
    12.3972  12.3972  12.4419  12.4419  12.6963  12.6963  12.7032  12.7032
    14.6284  14.6284  14.6438  14.6438  14.8376  14.8376  14.8793  14.8793
    16.0915  16.0915  16.2145  16.2145

          k = 0.4750 0.5000 0.0000 ( 10718 PWs)   bands (ev):

   -73.4260 -73.4260 -73.4260 -73.4260 -39.6058 -39.6058 -39.6058 -39.6058
   -39.6042 -39.6042 -39.6042 -39.6042 -39.3549 -39.3549 -39.3549 -39.3549
    -2.6180  -2.6180  -2.5067  -2.5067   0.7530   0.7530   0.7605   0.7605
     5.6248   5.6248   5.6509   5.6509   7.4890   7.4890   7.6343   7.6343
     8.9558   8.9558   8.9697   8.9697   9.4957   9.4957   9.5071   9.5071
    10.5214  10.5214  10.6340  10.6340  11.9729  11.9729  12.0166  12.0166
    12.4120  12.4120  12.4364  12.4364  12.6979  12.6979  12.7010  12.7010
    14.6858  14.6858  14.6884  14.6884  14.7839  14.7839  14.8157  14.8157
    16.1169  16.1170  16.1780  16.1780

          k = 0.5000 0.5000 0.0000 ( 10704 PWs)   bands (ev):

   -73.4260 -73.4260 -73.4260 -73.4260 -39.6058 -39.6058 -39.6058 -39.6058
   -39.6042 -39.6042 -39.6042 -39.6042 -39.3549 -39.3549 -39.3549 -39.3549
    -2.5624  -2.5624  -2.5624  -2.5624   0.7561   0.7561   0.7561   0.7561
     5.6349   5.6349   5.6349   5.6349   7.5664   7.5664   7.5664   7.5664
     8.9617   8.9617   8.9617   8.9617   9.5034   9.5034   9.5034   9.5034
    10.5760  10.5760  10.5760  10.5760  11.9961  11.9961  11.9961  11.9961
    12.4259  12.4259  12.4259  12.4259  12.6994  12.6994  12.6994  12.6994
    14.7328  14.7328  14.7328  14.7328  14.7515  14.7515  14.7515  14.7515
    16.1456  16.1456  16.1456  16.1456

          k = 0.4750 0.4750 0.0000 ( 10710 PWs)   bands (ev):

   -73.4260 -73.4260 -73.4260 -73.4260 -39.6059 -39.6058 -39.6058 -39.6057
   -39.6043 -39.6042 -39.6041 -39.6041 -39.3549 -39.3549 -39.3549 -39.3549
    -2.6764  -2.5599  -2.5593  -2.4535   0.7280   0.7349   0.7792   0.7881
     5.5696   5.5959   5.6854   5.7104   7.4407   7.5351   7.6001   7.6602
     8.9032   8.9191   8.9925   9.0315   9.4674   9.4794   9.5231   9.5331
    10.4503  10.5663  10.5885  10.7006  11.9521  11.9937  11.9990  12.0426
    12.3828  12.4078  12.4418  12.4649  12.6723  12.6777  12.7179  12.7192
    14.6354  14.6652  14.7167  14.7338  14.7358  14.7918  14.8373  14.8506
    16.1011  16.1277  16.1601  16.1910

          k = 0.4500 0.4500 0.0000 ( 10716 PWs)   bands (ev):

   -73.4260 -73.4260 -73.4260 -73.4259 -39.6059 -39.6059 -39.6057 -39.6057
   -39.6044 -39.6043 -39.6041 -39.6041 -39.3550 -39.3549 -39.3549 -39.3549
    -2.7933  -2.5515  -2.5504  -2.3516   0.7032   0.7169   0.8021   0.8244
     5.5164   5.5680   5.7476   5.7939   7.2995   7.5063   7.6349   7.7062
     8.8226   8.9176   8.9958   9.1091   9.4272   9.4521   9.5380   9.5561
    10.3265  10.5627  10.5954  10.8218  11.9181  11.9902  12.0035  12.0835
    12.3429  12.3874  12.4562  12.4930  12.6380  12.6570  12.7319  12.7323
    14.5459  14.5948  14.6937  14.7336  14.7395  14.8376  14.9475  14.9608
    16.0563  16.1063  16.1719  16.2373

          k = 0.4250 0.4250 0.0000 ( 10718 PWs)   bands (ev):

   -73.4260 -73.4260 -73.4260 -73.4259 -39.6060 -39.6059 -39.6057 -39.6056
   -39.6045 -39.6044 -39.6041 -39.6040 -39.3550 -39.3549 -39.3549 -39.3549
    -2.9115  -2.5376  -2.5360  -2.2586   0.6813   0.7034   0.8231   0.8660
     5.4767   5.5509   5.8215   5.8821   7.1560   7.4802   7.6655   7.7029
     8.7279   8.9375   8.9967   9.1705   9.3910   9.4243   9.5486   9.5734
    10.2078  10.5618  10.5868  10.9369  11.9008  11.9837  12.0105  12.1110
    12.3145  12.3647  12.4704  12.5029  12.5970  12.6447  12.7379  12.7434
    14.4647  14.5388  14.6853  14.7312  14.7480  14.8862  15.0618  15.0775
    16.0093  16.0828  16.1821  16.2836

          k = 0.4000 0.4000 0.0000 ( 10714 PWs)   bands (ev):

   -73.4260 -73.4260 -73.4260 -73.4259 -39.6060 -39.6059 -39.6055 -39.6055
   -39.6046 -39.6045 -39.6040 -39.6040 -39.3551 -39.3549 -39.3549 -39.3548
    -3.0292  -2.5182  -2.5161  -2.1763   0.6622   0.6949   0.8405   0.9136
     5.4515   5.5440   5.9072   5.9708   7.0206   7.4561   7.6368   7.7129
     8.6270   8.9057   9.0549   9.1816   9.3773   9.4039   9.5589   9.5882
    10.0979  10.5551  10.5557  11.0429  11.9034  11.9732  12.0202  12.1233
    12.3022  12.3396  12.4858  12.4927  12.5507  12.6445  12.7379  12.7526
    14.3919  14.4945  14.6975  14.7251  14.7624  14.9334  15.1780  15.1962
    15.9602  16.0595  16.1912  16.3285

          k = 0.3750 0.3750 0.0000 ( 10726 PWs)   bands (ev):

   -73.4260 -73.4260 -73.4260 -73.4259 -39.6061 -39.6060 -39.6055 -39.6054
   -39.6047 -39.6045 -39.6041 -39.6040 -39.3551 -39.3549 -39.3549 -39.3549
    -3.1451  -2.4935  -2.4911  -2.1061   0.6454   0.6909   0.8526   0.9685
     5.4415   5.5468   6.0042   6.0539   6.9031   7.4329   7.5576   7.7416
     8.5272   8.8505   9.1086   9.1337   9.3773   9.4082   9.5776   9.6094
     9.9995  10.5005  10.5321  11.1357  11.9249  11.9592  12.0318  12.1288
    12.3014  12.3112  12.4719  12.4880  12.5163  12.6504  12.7324  12.7614
    14.3274  14.4586  14.7141  14.7347  14.7843  14.9711  15.2938  15.3121
    15.9147  16.0385  16.1998  16.3703

          k = 0.3500 0.3500 0.0000 ( 10682 PWs)   bands (ev):

   -73.4260 -73.4259 -73.4259 -73.4259 -39.6060 -39.6059 -39.6053 -39.6053
   -39.6046 -39.6044 -39.6040 -39.6040 -39.3550 -39.3548 -39.3548 -39.3548
    -3.2578  -2.4641  -2.4613  -2.0486   0.6307   0.6903   0.8585   1.0315
     5.4467   5.5588   6.1117   6.1226   6.8146   7.4090   7.4640   7.7640
     8.4346   8.7924   9.0541   9.1117   9.3567   9.4387   9.6074   9.6575
     9.9128  10.4257  10.4848  11.2094  11.9456  11.9608  12.0441  12.1395
    12.2785  12.3043  12.4395  12.4516  12.5334  12.6553  12.7224  12.7708
    14.2711  14.4290  14.6975  14.7988  14.8156  14.9870  15.4072  15.4207
    15.8862  16.0212  16.2082  16.4077

          k = 0.3250 0.3250 0.0000 ( 10681 PWs)   bands (ev):

   -73.4260 -73.4259 -73.4259 -73.4259 -39.6061 -39.6059 -39.6053 -39.6052
   -39.6046 -39.6044 -39.6039 -39.6039 -39.3550 -39.3548 -39.3548 -39.3547
    -3.3663  -2.4301  -2.4272  -2.0039   0.6180   0.6915   0.8574   1.1031
     5.4670   5.5791   6.1660   6.2282   6.7668   7.3686   7.3822   7.7737
     8.3539   8.7420   8.9593   9.0732   9.3112   9.4587   9.6359   9.7485
     9.8336  10.3405  10.4107  11.2559  11.9388  12.0030  12.0565  12.1604
    12.2411  12.3065  12.3866  12.4381  12.5556  12.6554  12.7084  12.7805
    14.2223  14.4045  14.6744  14.8559  14.8911  14.9687  15.5162  15.5176
    15.8899  16.0090  16.2165  16.4397

          k = 0.3000 0.3000 0.0000 ( 10691 PWs)   bands (ev):

   -73.4260 -73.4260 -73.4260 -73.4259 -39.6062 -39.6059 -39.6054 -39.6051
   -39.6046 -39.6045 -39.6039 -39.6039 -39.3551 -39.3548 -39.3548 -39.3548
    -3.4697  -2.3923  -2.3892  -1.9714   0.6069   0.6925   0.8490   1.1831
     5.5018   5.6074   6.1788   6.3511   6.7657   7.2803   7.3506   7.7656
     8.2877   8.7080   8.8583   9.0142   9.2496   9.4584   9.6475   9.7560
     9.8632  10.2574  10.3132  11.2682  11.9462  12.0331  12.0798  12.1910
    12.2004  12.3022  12.3422  12.4333  12.5745  12.6493  12.6910  12.7902
    14.1800  14.3848  14.6449  14.9105  14.9138  15.0059  15.6010  15.6198
    15.9307  16.0038  16.2249  16.4663

          k = 0.2750 0.2750 0.0000 ( 10711 PWs)   bands (ev):

   -73.4261 -73.4260 -73.4260 -73.4259 -39.6063 -39.6060 -39.6056 -39.6050
   -39.6046 -39.6046 -39.6040 -39.6039 -39.3551 -39.3549 -39.3548 -39.3548
    -3.5671  -2.3512  -2.3481  -1.9498   0.5973   0.6918   0.8336   1.2706
     5.5498   5.6430   6.1693   6.4757   6.8030   7.2074   7.3128   7.7366
     8.2343   8.6953   8.7601   8.9450   9.1793   9.4472   9.6137   9.6907
     9.9699  10.1893  10.2060  11.2440  11.9702  12.0345  12.1223  12.1608
    12.2277  12.2744  12.3264  12.4360  12.5867  12.6372  12.6708  12.7991
    14.1423  14.3699  14.6095  14.8329  14.9796  15.1413  15.6707  15.7177
    15.9925  16.0137  16.2335  16.4883

          k = 0.2500 0.2500 0.0000 ( 10685 PWs)   bands (ev):

   -73.4261 -73.4259 -73.4259 -73.4258 -39.6063 -39.6060 -39.6056 -39.6049
   -39.6045 -39.6044 -39.6039 -39.6039 -39.3551 -39.3548 -39.3548 -39.3547
    -3.6580  -2.3076  -2.3046  -1.9377   0.5890   0.6879   0.8117   1.3637
     5.6098   5.6857   6.1527   6.5927   6.8632   7.1605   7.2696   7.6878
     8.1862   8.6752   8.7015   8.8736   9.1047   9.4312   9.5153   9.6486
     9.9902  10.1445  10.1612  11.1878  12.0068  12.0204  12.1097  12.1826
    12.2370  12.2680  12.3263  12.4437  12.5902  12.6206  12.6477  12.8058
    14.1063  14.3598  14.5698  14.7418  15.0645  15.2928  15.7273  15.8100
    16.0159  16.0843  16.2427  16.5074

          k = 0.2250 0.2250 0.0000 ( 10731 PWs)   bands (ev):

   -73.4262 -73.4260 -73.4260 -73.4259 -39.6064 -39.6062 -39.6058 -39.6049
   -39.6046 -39.6045 -39.6040 -39.6040 -39.3552 -39.3549 -39.3549 -39.3549
    -3.7416  -2.2624  -2.2596  -1.9331   0.5818   0.6802   0.7842   1.4600
     5.6797   5.7352   6.1403   6.6864   6.9340   7.1543   7.2234   7.6246
     8.1322   8.6139   8.7024   8.8228   9.0280   9.3890   9.4132   9.5963
     9.8794  10.1234  10.2244  11.1073  11.9963  12.0471  12.0674  12.2056
    12.2341  12.3068  12.3289  12.4536  12.5848  12.6017  12.6224  12.8086
    14.0674  14.3546  14.5283  14.6542  15.1649  15.4552  15.7724  15.8974
    16.0384  16.1634  16.2525  16.5259

          k = 0.2000 0.2000 0.0000 ( 10703 PWs)   bands (ev):

   -73.4262 -73.4259 -73.4259 -73.4259 -39.6064 -39.6061 -39.6059 -39.6047
   -39.6045 -39.6042 -39.6040 -39.6039 -39.3552 -39.3548 -39.3548 -39.3548
    -3.8176  -2.2166  -2.2140  -1.9343   0.5757   0.6684   0.7526   1.5566
     5.7572   5.7915   6.1370   6.7425   7.0078   7.1792   7.1974   7.5577
     8.0648   8.5776   8.6474   8.8392   8.9493   9.2549   9.3952   9.5274
     9.7461  10.1211  10.2913  11.0101  11.9662  12.0238  12.0759  12.1879
    12.2849  12.3296  12.3469  12.4641  12.5726  12.5824  12.5965  12.8075
    14.0201  14.3545  14.4884  14.5801  15.2793  15.6223  15.8099  15.9814
    16.0663  16.2317  16.2633  16.5468

          k = 0.1750 0.1750 0.0000 ( 10707 PWs)   bands (ev):

   -73.4262 -73.4259 -73.4259 -73.4259 -39.6064 -39.6062 -39.6060 -39.6046
   -39.6045 -39.6043 -39.6040 -39.6039 -39.3552 -39.3548 -39.3548 -39.3548
    -3.8855  -2.1713  -2.1692  -1.9394   0.5704   0.6530   0.7184   1.6504
     5.8396   5.8545   6.1433   6.7686   7.0687   7.1547   7.2604   7.5124
     7.9871   8.5523   8.5585   8.8648   8.8952   9.1316   9.3778   9.4464
     9.6189  10.1324  10.3406  10.9022  11.9332  11.9793  12.0694  12.1999
    12.3324  12.3339  12.3809  12.4737  12.5567  12.5640  12.5723  12.8029
    13.9593  14.3589  14.4542  14.5238  15.4043  15.7831  15.8445  16.0653
    16.0960  16.2757  16.2822  16.5734

          k = 0.1500 0.1500 0.0000 ( 10733 PWs)   bands (ev):

   -73.4262 -73.4259 -73.4259 -73.4259 -39.6065 -39.6063 -39.6061 -39.6047
   -39.6046 -39.6042 -39.6041 -39.6041 -39.3553 -39.3549 -39.3549 -39.3548
    -3.9450  -2.1279  -2.1262  -1.9470   0.5658   0.6350   0.6832   1.7386
     5.9233   5.9233   6.1571   6.7857   7.0665   7.2029   7.2671   7.5453
     7.9085   8.4579   8.5140   8.7631   8.9631   9.0452   9.3596   9.3601
     9.5116  10.1532  10.3693  10.7885  11.8998  11.9348  12.0315  12.2323
    12.3383  12.3755  12.4120  12.4821  12.5405  12.5472  12.5516  12.7965
    13.8841  14.3671  14.4298  14.4843  15.5351  15.8800  15.9184  16.1242
    16.1560  16.2946  16.3123  16.6081

          k = 0.1250 0.1250 0.0000 ( 10765 PWs)   bands (ev):

   -73.4263 -73.4259 -73.4259 -73.4259 -39.6066 -39.6064 -39.6063 -39.6048
   -39.6047 -39.6041 -39.6041 -39.6041 -39.3554 -39.3550 -39.3550 -39.3549
    -3.9958  -2.0878  -2.0864  -1.9556   0.5621   0.6156   0.6490   1.8183
     5.9957   6.0045   6.1753   6.8080   7.0394   7.2123   7.2889   7.6461
     7.8389   8.3511   8.4455   8.6370   9.0106   9.0299   9.2766   9.3363
     9.4406  10.1807  10.3783  10.6736  11.8682  11.8926  11.9787  12.2672
    12.3430  12.4133  12.4389  12.4891  12.5271  12.5322  12.5359  12.7896
    13.7993  14.3777  14.4162  14.4574  15.6664  15.9181  16.0090  16.1493
    16.2340  16.3222  16.3510  16.6513

          k = 0.1000 0.1000 0.0000 ( 10755 PWs)   bands (ev):

   -73.4263 -73.4259 -73.4259 -73.4259 -39.6065 -39.6064 -39.6063 -39.6047
   -39.6047 -39.6041 -39.6041 -39.6041 -39.3554 -39.3549 -39.3549 -39.3548
    -4.0377  -2.0523  -2.0514  -1.9641   0.5590   0.5964   0.6177   1.8871
     6.0678   6.0792   6.1945   6.8406   7.0154   7.1429   7.3870   7.7589
     7.7872   8.2427   8.3473   8.4947   9.0127   9.0786   9.2028   9.3171
     9.4126  10.2116  10.3701  10.5621  11.8397  11.8549  11.9207  12.2986
    12.3478  12.4451  12.4615  12.4949  12.5179  12.5206  12.5244  12.7835
    13.7127  14.3892  14.4112  14.4396  15.7922  15.9596  16.0600  16.1703
    16.2576  16.3144  16.4736  16.6999

          k = 0.0750 0.0750 0.0000 ( 10759 PWs)   bands (ev):

   -73.4263 -73.4259 -73.4259 -73.4259 -39.6066 -39.6065 -39.6063 -39.6047
   -39.6046 -39.6041 -39.6041 -39.6041 -39.3554 -39.3549 -39.3549 -39.3548
    -4.0704  -2.0229  -2.0223  -1.9716   0.5567   0.5791   0.5911   1.9429
     6.1342   6.1435   6.2119   6.8823   6.9974   7.0771   7.4950   7.7609
     7.8591   8.1395   8.2314   8.3454   9.0301   9.0920   9.1436   9.3327
     9.4095  10.2425  10.3494  10.4596  11.8156  11.8238  11.8655  12.3240
    12.3519  12.4702  12.4792  12.4992  12.5124  12.5130  12.5162  12.7783
    13.6331  14.4000  14.4112  14.4281  15.9067  16.0039  16.0879  16.1867
    16.2571  16.2926  16.6077  16.7479

          k = 0.0500 0.0500 0.0000 ( 10775 PWs)   bands (ev):

   -73.4263 -73.4259 -73.4259 -73.4259 -39.6066 -39.6065 -39.6065 -39.6048
   -39.6047 -39.6041 -39.6041 -39.6041 -39.3555 -39.3550 -39.3549 -39.3549
    -4.0939  -2.0008  -2.0005  -1.9775   0.5550   0.5654   0.5707   1.9841
     6.1885   6.1934   6.2254   6.9264   6.9851   7.0232   7.6126   7.7647
     7.9334   8.0535   8.1121   8.1942   9.0490   9.0824   9.1012   9.3749
     9.4165  10.2690  10.3235  10.3738  11.7971  11.8005  11.8206  12.3425
    12.3550  12.4881  12.4917  12.5015  12.5093  12.5098  12.5111  12.7745
    13.5688  14.4087  14.4134  14.4211  16.0043  16.0492  16.1029  16.1985
    16.2446  16.2612  16.7217  16.7883

          k = 0.0250 0.0250 0.0000 ( 10807 PWs)   bands (ev):

   -73.4263 -73.4260 -73.4260 -73.4260 -39.6067 -39.6066 -39.6066 -39.6049
   -39.6048 -39.6041 -39.6041 -39.6041 -39.3556 -39.3550 -39.3550 -39.3550
    -4.1080  -1.9871  -1.9870  -1.9812   0.5539   0.5566   0.5579   2.0092
     6.2241   6.2255   6.2338   6.9615   6.9776   6.9876   7.7371   7.7975
     7.9582   8.0049   8.0148   8.0475   9.0626   9.0715   9.0758   9.4137
     9.4252  10.2870  10.3019  10.3148  11.7854  11.7862  11.7914  12.3537
    12.3569  12.4981  12.4988  12.5013  12.5089  12.5092  12.5092  12.7721
    13.5270  14.4143  14.4154  14.4173  16.0788  16.0910  16.1103  16.2055
    16.2233  16.2270  16.7979  16.8153

          k = 0.0000 0.0000 0.0000 ( 10827 PWs)   bands (ev):

   -73.4264 -73.4260 -73.4260 -73.4260 -39.6067 -39.6066 -39.6066 -39.6049
   -39.6048 -39.6043 -39.6042 -39.6042 -39.3556 -39.3551 -39.3551 -39.3551
    -4.1127  -1.9825  -1.9825  -1.9825   0.5536   0.5536   0.5536   2.0177
     6.2366   6.2366   6.2366   6.9751   6.9751   6.9751   7.8297   7.8297
     7.9472   7.9472   7.9472   8.0195   9.0674   9.0674   9.0674   9.4289
     9.4290  10.2934  10.2934  10.2935  11.7814  11.7814  11.7814  12.3575
    12.3575  12.5008  12.5009  12.5009  12.5093  12.5093  12.5094  12.7714
    13.5125  14.4161  14.4162  14.4162  16.1125  16.1125  16.1125  16.2077
    16.2077  16.2078  16.8246  16.8247

     Writing all to output data dir ./work/pwscf.save/

     init_run     :      1.09s CPU      1.19s WALL (       1 calls)
     electrons    :     70.36s CPU     73.21s WALL (       1 calls)

     Called by init_run:
     wfcinit      :      0.00s CPU      0.00s WALL (       1 calls)
     wfcinit:atom :      0.06s CPU      0.07s WALL (      81 calls)
     wfcinit:wfcr :      4.95s CPU      5.29s WALL (      81 calls)
     potinit      :      0.42s CPU      0.47s WALL (       1 calls)
     hinit0       :      0.44s CPU      0.45s WALL (       1 calls)

     Called by electrons:
     c_bands      :     70.35s CPU     73.21s WALL (       1 calls)
     v_of_rho     :      0.02s CPU      0.02s WALL (       1 calls)
     v_h          :      0.00s CPU      0.00s WALL (       1 calls)
     v_xc         :      0.02s CPU      0.02s WALL (       1 calls)
     newd         :      0.07s CPU      0.09s WALL (       1 calls)
     PAW_pot      :      0.13s CPU      0.14s WALL (       1 calls)

     Called by c_bands:
     init_us_2    :      0.06s CPU      0.07s WALL (      81 calls)
     init_us_2:cp :      0.06s CPU      0.07s WALL (      81 calls)
     cegterg      :     64.41s CPU     66.49s WALL (      81 calls)

     Called by sum_band:

     Called by *egterg:
     cdiaghg      :      6.03s CPU      6.07s WALL (    1177 calls)
     cegterg:over :      7.35s CPU      7.46s WALL (    1096 calls)
     cegterg:upda :      2.07s CPU      2.08s WALL (    1096 calls)
     cegterg:last :      6.48s CPU      6.48s WALL (     858 calls)
     h_psi        :     38.36s CPU     40.49s WALL (    1258 calls)
     s_psi        :      3.71s CPU      3.79s WALL (    1258 calls)
     g_psi        :      0.25s CPU      0.25s WALL (    1096 calls)

     Called by h_psi:
     h_psi:calbec :      5.57s CPU      5.84s WALL (    1258 calls)
     vloc_psi     :     28.68s CPU     30.45s WALL (    1258 calls)
     add_vuspsi   :      3.87s CPU      3.95s WALL (    1258 calls)

     General routines
     calbec       :      5.57s CPU      5.84s WALL (    1258 calls)
     fft          :      0.36s CPU      0.36s WALL (      13 calls)
     ffts         :      0.26s CPU      0.26s WALL (       1 calls)
     fftw         :     26.61s CPU     28.26s WALL (  120870 calls)
     interpolate  :      0.26s CPU      0.26s WALL (       1 calls)

     Parallel routines

     PAW routines
     PAW_pot      :      0.13s CPU      0.14s WALL (       1 calls)

     PWSCF        :   1m12.42s CPU   1m22.38s WALL


   This run was terminated on:  10:53:46  22Sep2023            

=------------------------------------------------------------------------------=
   JOB DONE.
=------------------------------------------------------------------------------=
