
     Program BANDS v.7.1 starts on 21Sep2023 at 17:34:45 

     This program is part of the open-source Quantum ESPRESSO suite
     for quantum simulation of materials; please cite
         "P. Giannozzi et al., J. Phys.:Condens. Matter 21 395502 (2009);
         "P. Giannozzi et al., J. Phys.:Condens. Matter 29 465901 (2017);
         "P. Giannozzi et al., J. Chem. Phys. 152 154105 (2020);
          URL http://www.quantum-espresso.org", 
     in publications or presentations arising from this work. More details at
     http://www.quantum-espresso.org/quote

     Parallel version (MPI & OpenMP), running on      10 processor cores
     Number of MPI processes:                10
     Threads/MPI process:                     1

     MPI processes distributed on     1 nodes
     R & G space division:  proc/nbgrp/npool/nimage =      10
     11849 MiB available memory on the printing compute node when the environment starts


     Reading xml data from directory:

     ./work/pwscf.save/
     file S.pbe-n-kjpaw_psl.1.0.0.UPF: wavefunction(s)  3S 3P renormalized
     file Fe.pbe-spn-kjpaw_psl.1.0.0.UPF: wavefunction(s)  3P 3D renormalized

     IMPORTANT: XC functional enforced from input :
     Exchange-correlation= PBE
                           (   1   4   3   4   0   0   0)
     Any further DFT definition will be discarded
     Please, verify this is what you really want


     Parallelization info
     --------------------
     sticks:   dense  smooth     PW     G-vecs:    dense   smooth      PW
     Min         411     236     66                19790     8572    1296
     Max         413     237     67                19791     8575    1297
     Sum        4117    2361    665               197909    85735   12965

     Using Slab Decomposition

     Reading collected, re-writing distributed wavefunctions
     high-symmetry point:  0.5000 0.5000 0.5000   x coordinate   0.0000
     high-symmetry point:  0.0000 0.0000 0.0000   x coordinate   0.8660
     high-symmetry point:  0.5000 0.0000 0.0000   x coordinate   1.3660
     high-symmetry point:  0.5000 0.5000 0.0000   x coordinate   1.8660
     high-symmetry point:  0.0000 0.0000 0.0000   x coordinate   2.5731

     Plottable bands (eV) written to file bands.out.gnu
     Bands written to file bands.out

 **************************************************************************

                    xk=(   0.50000,   0.50000,   0.50000  )

     zone border point and non-symmorphic group 
     symmetry decomposition not available

 **************************************************************************

 **************************************************************************

                    xk=(   0.47500,   0.47500,   0.47500  )

     point group C_3 (3)    
     there are  3 classes
     the character table:

       E     C3    C3^2 
A      1.00  1.00  1.00
E      1.00 -0.50 -0.50
E*     1.00 -0.50 -0.50
     imaginary part
A      0.00  0.00  0.00
E      0.00  0.87 -0.87
E*     0.00 -0.87  0.87

     the symmetry operations in each class and the name of the first element:

     E        1
                                                                 
     C3       3
                                                                 
     C3^2     2
                                                                 

     Band symmetry, C_3 (3)     point group:

     e(  1 -  4) =    -73.35501  eV     4   -->   2 A              
     e(  1 -  4) =    -73.35501  eV     4   --> E              
     e(  1 -  4) =    -73.35501  eV     4   --> E*             
     e(  5 -  8) =    -39.53859  eV     4   -->   ?
     e(  9 - 12) =    -39.53597  eV     4   -->   ?
     e( 13 - 16) =    -39.28738  eV     4   -->   2 A              
     e( 13 - 16) =    -39.28738  eV     4   --> E              
     e( 13 - 16) =    -39.28738  eV     4   --> E*             
     e( 17 - 17) =     -2.39269  eV     1   --> A              
     e( 18 - 18) =     -2.37201  eV     1   --> A              
     e( 19 - 20) =     -2.37148  eV     2   --> E              
     e( 19 - 20) =     -2.37148  eV     2   --> E*             
     e( 21 - 22) =      0.22563  eV     2   --> E              
     e( 21 - 22) =      0.22563  eV     2   --> E*             
     e( 23 - 23) =      0.23076  eV     1   --> A              
     e( 24 - 24) =      0.23981  eV     1   --> A              
     e( 25 - 25) =      6.31929  eV     1   --> A              
     e( 26 - 27) =      6.36418  eV     2   --> E              
     e( 26 - 27) =      6.36418  eV     2   --> E*             
     e( 28 - 28) =      6.37134  eV     1   --> A              
     e( 29 - 30) =      7.44087  eV     2   --> E              
     e( 29 - 30) =      7.44087  eV     2   --> E*             
     e( 31 - 31) =      7.46748  eV     1   --> A              
     e( 32 - 32) =      7.53167  eV     1   --> A              
     e( 33 - 34) =      8.33567  eV     2   --> E              
     e( 33 - 34) =      8.33567  eV     2   --> E*             
     e( 35 - 36) =      8.36566  eV     2   --> E              
     e( 35 - 36) =      8.36566  eV     2   --> E*             
     e( 37 - 38) =     10.52263  eV     2   --> E              
     e( 37 - 38) =     10.52263  eV     2   --> E*             
     e( 39 - 40) =     10.54582  eV     2   --> E              
     e( 39 - 40) =     10.54582  eV     2   --> E*             
     e( 41 - 41) =     10.81019  eV     1   --> A              
     e( 42 - 43) =     10.85177  eV     2   --> E              
     e( 42 - 43) =     10.85177  eV     2   --> E*             
     e( 44 - 44) =     10.85805  eV     1   --> A              
     e( 45 - 45) =     11.70346  eV     1   --> A              
     e( 46 - 47) =     11.71203  eV     2   --> E              
     e( 46 - 47) =     11.71203  eV     2   --> E*             
     e( 48 - 48) =     11.74057  eV     1   --> A              
     e( 49 - 50) =     11.86490  eV     2   --> E              
     e( 49 - 50) =     11.86490  eV     2   --> E*             
     e( 51 - 52) =     11.87878  eV     2   --> E              
     e( 51 - 52) =     11.87878  eV     2   --> E*             
     e( 53 - 53) =     12.51482  eV     1   --> A              
     e( 54 - 55) =     12.52213  eV     2   --> E              
     e( 54 - 55) =     12.52213  eV     2   --> E*             
     e( 56 - 56) =     12.52275  eV     1   --> A              
     e( 57 - 57) =     14.35851  eV     1   --> A              
     e( 58 - 58) =     14.37164  eV     1   --> A              
     e( 59 - 60) =     14.37186  eV     2   --> E              
     e( 59 - 60) =     14.37186  eV     2   --> E*             
     e( 61 - 62) =     15.30410  eV     2   --> E              
     e( 61 - 62) =     15.30410  eV     2   --> E*             
     e( 63 - 64) =     15.31638  eV     2   --> E              
     e( 63 - 64) =     15.31638  eV     2   --> E*             
     e( 65 - 65) =     16.19080  eV     1   --> A              
     e( 66 - 66) =     16.19601  eV     1   --> A              
     e( 67 - 68) =     16.20834  eV     2   --> E              
     e( 67 - 68) =     16.20834  eV     2   --> E*             
     e( 69 - 69) =     19.88747  eV     1   --> A              
     e( 70 - 71) =     19.92243  eV     2   --> E              
     e( 70 - 71) =     19.92243  eV     2   --> E*             
     e( 72 - 72) =     19.99024  eV     1   --> A              
     e( 73 - 73) =     20.91123  eV     1   --> A              
     e( 74 - 75) =     20.95629  eV     2   --> E              
     e( 74 - 75) =     20.95629  eV     2   --> E*             
     e( 76 - 76) =     21.01998  eV     1   --> A              
     e( 77 - 78) =     21.39277  eV     2   --> E              
     e( 77 - 78) =     21.39277  eV     2   --> E*             
     e( 79 - 80) =     21.42407  eV     2   --> E              
     e( 79 - 80) =     21.42407  eV     2   --> E*             
     e( 81 - 82) =     21.89354  eV     2   --> E              
     e( 81 - 82) =     21.89354  eV     2   --> E*             
     e( 83 - 84) =     21.93051  eV     2   --> E              
     e( 83 - 84) =     21.93051  eV     2   --> E*             

 **************************************************************************

 **************************************************************************

                    xk=(   0.45000,   0.45000,   0.45000  )

     Band symmetry, C_3 (3)     point group:

     e(  1 -  4) =    -73.35503  eV     4   -->   2 A              
     e(  1 -  4) =    -73.35503  eV     4   --> E              
     e(  1 -  4) =    -73.35503  eV     4   --> E*             
     e(  5 -  8) =    -39.53868  eV     4   -->   ?
     e(  9 - 12) =    -39.53606  eV     4   -->   ?
     e( 13 - 16) =    -39.28746  eV     4   -->   2 A              
     e( 13 - 16) =    -39.28746  eV     4   --> E              
     e( 13 - 16) =    -39.28746  eV     4   --> E*             
     e( 17 - 17) =     -2.45013  eV     1   --> A              
     e( 18 - 18) =     -2.36972  eV     1   --> A              
     e( 19 - 20) =     -2.36769  eV     2   --> E              
     e( 19 - 20) =     -2.36769  eV     2   --> E*             
     e( 21 - 22) =      0.23980  eV     2   --> E              
     e( 21 - 22) =      0.23980  eV     2   --> E*             
     e( 23 - 23) =      0.26035  eV     1   --> A              
     e( 24 - 24) =      0.29381  eV     1   --> A              
     e( 25 - 25) =      6.19410  eV     1   --> A              
     e( 26 - 27) =      6.34374  eV     2   --> E              
     e( 26 - 27) =      6.34374  eV     2   --> E*             
     e( 28 - 28) =      6.37334  eV     1   --> A              
     e( 29 - 30) =      7.37739  eV     2   --> E              
     e( 29 - 30) =      7.37739  eV     2   --> E*             
     e( 31 - 31) =      7.47034  eV     1   --> A              
     e( 32 - 32) =      7.69818  eV     1   --> A              
     e( 33 - 34) =      8.32988  eV     2   --> E              
     e( 33 - 34) =      8.32988  eV     2   --> E*             
     e( 35 - 36) =      8.43565  eV     2   --> E              
     e( 35 - 36) =      8.43565  eV     2   --> E*             
     e( 37 - 38) =     10.43175  eV     2   --> E              
     e( 37 - 38) =     10.43175  eV     2   --> E*             
     e( 39 - 40) =     10.51275  eV     2   --> E              
     e( 39 - 40) =     10.51275  eV     2   --> E*             
     e( 41 - 41) =     10.66039  eV     1   --> A              
     e( 42 - 43) =     10.81084  eV     2   --> E              
     e( 42 - 43) =     10.81084  eV     2   --> E*             
     e( 44 - 44) =     10.82016  eV     1   --> A              
     e( 45 - 45) =     11.73598  eV     1   --> A              
     e( 46 - 47) =     11.75602  eV     2   --> E              
     e( 46 - 47) =     11.75602  eV     2   --> E*             
     e( 48 - 48) =     11.85269  eV     1   --> A              
     e( 49 - 50) =     11.89471  eV     2   --> E              
     e( 49 - 50) =     11.89471  eV     2   --> E*             
     e( 51 - 52) =     11.94564  eV     2   --> E              
     e( 51 - 52) =     11.94564  eV     2   --> E*             
     e( 53 - 53) =     12.51012  eV     1   --> A              
     e( 54 - 55) =     12.53898  eV     2   --> E              
     e( 54 - 55) =     12.53898  eV     2   --> E*             
     e( 56 - 56) =     12.54215  eV     1   --> A              
     e( 57 - 57) =     14.35424  eV     1   --> A              
     e( 58 - 58) =     14.40589  eV     1   --> A              
     e( 59 - 60) =     14.40680  eV     2   --> E              
     e( 59 - 60) =     14.40680  eV     2   --> E*             
     e( 61 - 62) =     15.28154  eV     2   --> E              
     e( 61 - 62) =     15.28154  eV     2   --> E*             
     e( 63 - 64) =     15.33073  eV     2   --> E              
     e( 63 - 64) =     15.33073  eV     2   --> E*             
     e( 65 - 65) =     16.13635  eV     1   --> A              
     e( 66 - 66) =     16.15695  eV     1   --> A              
     e( 67 - 68) =     16.20543  eV     2   --> E              
     e( 67 - 68) =     16.20543  eV     2   --> E*             
     e( 69 - 69) =     19.72313  eV     1   --> A              
     e( 70 - 71) =     19.81837  eV     2   --> E              
     e( 70 - 71) =     19.81837  eV     2   --> E*             
     e( 72 - 72) =     20.06715  eV     1   --> A              
     e( 73 - 73) =     20.84944  eV     1   --> A              
     e( 74 - 75) =     20.99889  eV     2   --> E              
     e( 74 - 75) =     20.99889  eV     2   --> E*             
     e( 76 - 76) =     21.20975  eV     1   --> A              
     e( 77 - 78) =     21.27600  eV     2   --> E              
     e( 77 - 78) =     21.27600  eV     2   --> E*             
     e( 79 - 80) =     21.40451  eV     2   --> E              
     e( 79 - 80) =     21.40451  eV     2   --> E*             
     e( 81 - 82) =     21.92521  eV     2   --> E              
     e( 81 - 82) =     21.92521  eV     2   --> E*             
     e( 83 - 84) =     22.05383  eV     2   --> E              
     e( 83 - 84) =     22.05383  eV     2   --> E*             

 **************************************************************************

 **************************************************************************

                    xk=(   0.42500,   0.42500,   0.42500  )

     Band symmetry, C_3 (3)     point group:

     e(  1 -  4) =    -73.35505  eV     4   -->   2 A              
     e(  1 -  4) =    -73.35505  eV     4   --> E              
     e(  1 -  4) =    -73.35505  eV     4   --> E*             
     e(  5 -  8) =    -39.53869  eV     4   -->   ?
     e(  9 - 10) =    -39.53621  eV     2   -->   ?
     e( 11 - 12) =    -39.53603  eV     2   -->   ?
     e( 13 - 16) =    -39.28751  eV     4   -->   2 A              
     e( 13 - 16) =    -39.28751  eV     4   --> E              
     e( 13 - 16) =    -39.28751  eV     4   --> E*             
     e( 17 - 17) =     -2.53876  eV     1   --> A              
     e( 18 - 18) =     -2.36562  eV     1   --> A              
     e( 19 - 20) =     -2.36123  eV     2   --> E              
     e( 19 - 20) =     -2.36123  eV     2   --> E*             
     e( 21 - 22) =      0.26259  eV     2   --> E              
     e( 21 - 22) =      0.26259  eV     2   --> E*             
     e( 23 - 23) =      0.30894  eV     1   --> A              
     e( 24 - 24) =      0.37503  eV     1   --> A              
     e( 25 - 25) =      6.04126  eV     1   --> A              
     e( 26 - 27) =      6.30825  eV     2   --> E              
     e( 26 - 27) =      6.30825  eV     2   --> E*             
     e( 28 - 28) =      6.37793  eV     1   --> A              
     e( 29 - 30) =      7.30070  eV     2   --> E              
     e( 29 - 30) =      7.30070  eV     2   --> E*             
     e( 31 - 31) =      7.47373  eV     1   --> A              
     e( 32 - 32) =      7.91981  eV     1   --> A              
     e( 33 - 34) =      8.32064  eV     2   --> E              
     e( 33 - 34) =      8.32064  eV     2   --> E*             
     e( 35 - 36) =      8.51954  eV     2   --> E              
     e( 35 - 36) =      8.51954  eV     2   --> E*             
     e( 37 - 38) =     10.30415  eV     2   --> E              
     e( 37 - 38) =     10.30415  eV     2   --> E*             
     e( 39 - 40) =     10.45153  eV     2   --> E              
     e( 39 - 40) =     10.45153  eV     2   --> E*             
     e( 41 - 41) =     10.47025  eV     1   --> A              
     e( 42 - 42) =     10.76319  eV     1   --> A              
     e( 43 - 44) =     10.77732  eV     2   --> E              
     e( 43 - 44) =     10.77732  eV     2   --> E*             
     e( 45 - 45) =     11.78342  eV     1   --> A              
     e( 46 - 47) =     11.80194  eV     2   --> E              
     e( 46 - 47) =     11.80194  eV     2   --> E*             
     e( 48 - 49) =     11.94097  eV     2   --> E              
     e( 48 - 49) =     11.94097  eV     2   --> E*             
     e( 50 - 50) =     11.97904  eV     1   --> A              
     e( 51 - 52) =     12.04018  eV     2   --> E              
     e( 51 - 52) =     12.04018  eV     2   --> E*             
     e( 53 - 53) =     12.50261  eV     1   --> A              
     e( 54 - 55) =     12.56547  eV     2   --> E              
     e( 54 - 55) =     12.56547  eV     2   --> E*             
     e( 56 - 56) =     12.57425  eV     1   --> A              
     e( 57 - 57) =     14.34756  eV     1   --> A              
     e( 58 - 58) =     14.46102  eV     1   --> A              
     e( 59 - 60) =     14.46323  eV     2   --> E              
     e( 59 - 60) =     14.46323  eV     2   --> E*             
     e( 61 - 62) =     15.24327  eV     2   --> E              
     e( 61 - 62) =     15.24327  eV     2   --> E*             
     e( 63 - 64) =     15.35432  eV     2   --> E              
     e( 63 - 64) =     15.35432  eV     2   --> E*             
     e( 65 - 65) =     16.05013  eV     1   --> A              
     e( 66 - 66) =     16.09549  eV     1   --> A              
     e( 67 - 68) =     16.20124  eV     2   --> E              
     e( 67 - 68) =     16.20124  eV     2   --> E*             
     e( 69 - 69) =     19.55298  eV     1   --> A              
     e( 70 - 71) =     19.69066  eV     2   --> E              
     e( 70 - 71) =     19.69066  eV     2   --> E*             
     e( 72 - 72) =     20.19169  eV     1   --> A              
     e( 73 - 73) =     20.75656  eV     1   --> A              
     e( 74 - 75) =     21.00507  eV     2   --> E              
     e( 74 - 75) =     21.00507  eV     2   --> E*             
     e( 76 - 77) =     21.13932  eV     2   --> E              
     e( 76 - 77) =     21.13932  eV     2   --> E*             
     e( 78 - 78) =     21.40725  eV     1   --> A              
     e( 79 - 80) =     21.41910  eV     2   --> E              
     e( 79 - 80) =     21.41910  eV     2   --> E*             
     e( 81 - 82) =     21.96741  eV     2   --> E              
     e( 81 - 82) =     21.96741  eV     2   --> E*             
     e( 83 - 84) =     22.21327  eV     2   --> E              
     e( 83 - 84) =     22.21327  eV     2   --> E*             

 **************************************************************************

 **************************************************************************

                    xk=(   0.40000,   0.40000,   0.40000  )

     Band symmetry, C_3 (3)     point group:

     e(  1 -  4) =    -73.35509  eV     4   -->   2 A              
     e(  1 -  4) =    -73.35509  eV     4   --> E              
     e(  1 -  4) =    -73.35509  eV     4   --> E*             
     e(  5 -  5) =    -39.53863  eV     1   -->   ?
     e(  6 -  8) =    -39.53849  eV     3   -->   ?
     e(  9 - 10) =    -39.53614  eV     2   -->   ?
     e( 11 - 12) =    -39.53602  eV     2   -->   ?
     e( 13 - 16) =    -39.28742  eV     4   -->   2 A              
     e( 13 - 16) =    -39.28742  eV     4   --> E              
     e( 13 - 16) =    -39.28742  eV     4   --> E*             
     e( 17 - 17) =     -2.65059  eV     1   --> A              
     e( 18 - 18) =     -2.35932  eV     1   --> A              
     e( 19 - 20) =     -2.35198  eV     2   --> E              
     e( 19 - 20) =     -2.35198  eV     2   --> E*             
     e( 21 - 22) =      0.29278  eV     2   --> E              
     e( 21 - 22) =      0.29278  eV     2   --> E*             
     e( 23 - 23) =      0.37546  eV     1   --> A              
     e( 24 - 24) =      0.47307  eV     1   --> A              
     e( 25 - 25) =      5.88953  eV     1   --> A              
     e( 26 - 27) =      6.25727  eV     2   --> E              
     e( 26 - 27) =      6.25727  eV     2   --> E*             
     e( 28 - 28) =      6.38687  eV     1   --> A              
     e( 29 - 30) =      7.22984  eV     2   --> E              
     e( 29 - 30) =      7.22984  eV     2   --> E*             
     e( 31 - 31) =      7.47578  eV     1   --> A              
     e( 32 - 32) =      8.16746  eV     1   --> A              
     e( 33 - 34) =      8.30821  eV     2   --> E              
     e( 33 - 34) =      8.30821  eV     2   --> E*             
     e( 35 - 36) =      8.59175  eV     2   --> E              
     e( 35 - 36) =      8.59175  eV     2   --> E*             
     e( 37 - 38) =     10.16407  eV     2   --> E              
     e( 37 - 38) =     10.16407  eV     2   --> E*             
     e( 39 - 39) =     10.26665  eV     1   --> A              
     e( 40 - 41) =     10.36790  eV     2   --> E              
     e( 40 - 41) =     10.36790  eV     2   --> E*             
     e( 42 - 42) =     10.69248  eV     1   --> A              
     e( 43 - 44) =     10.76137  eV     2   --> E              
     e( 43 - 44) =     10.76137  eV     2   --> E*             
     e( 45 - 45) =     11.83923  eV     1   --> A              
     e( 46 - 47) =     11.84626  eV     2   --> E              
     e( 46 - 47) =     11.84626  eV     2   --> E*             
     e( 48 - 49) =     11.99452  eV     2   --> E              
     e( 48 - 49) =     11.99452  eV     2   --> E*             
     e( 50 - 50) =     12.09227  eV     1   --> A              
     e( 51 - 52) =     12.14251  eV     2   --> E              
     e( 51 - 52) =     12.14251  eV     2   --> E*             
     e( 53 - 53) =     12.49343  eV     1   --> A              
     e( 54 - 55) =     12.59832  eV     2   --> E              
     e( 54 - 55) =     12.59832  eV     2   --> E*             
     e( 56 - 56) =     12.61733  eV     1   --> A              
     e( 57 - 57) =     14.33940  eV     1   --> A              
     e( 58 - 58) =     14.53353  eV     1   --> A              
     e( 59 - 60) =     14.53849  eV     2   --> E              
     e( 59 - 60) =     14.53849  eV     2   --> E*             
     e( 61 - 62) =     15.18882  eV     2   --> E              
     e( 61 - 62) =     15.18882  eV     2   --> E*             
     e( 63 - 64) =     15.38693  eV     2   --> E              
     e( 63 - 64) =     15.38693  eV     2   --> E*             
     e( 65 - 65) =     15.93867  eV     1   --> A              
     e( 66 - 66) =     16.01809  eV     1   --> A              
     e( 67 - 68) =     16.19709  eV     2   --> E              
     e( 67 - 68) =     16.19709  eV     2   --> E*             
     e( 69 - 69) =     19.41420  eV     1   --> A              
     e( 70 - 71) =     19.56860  eV     2   --> E              
     e( 70 - 71) =     19.56860  eV     2   --> E*             
     e( 72 - 72) =     20.35854  eV     1   --> A              
     e( 73 - 73) =     20.64360  eV     1   --> A              
     e( 74 - 75) =     20.91351  eV     2   --> E              
     e( 74 - 75) =     20.91351  eV     2   --> E*             
     e( 76 - 77) =     21.06501  eV     2   --> E              
     e( 76 - 77) =     21.06501  eV     2   --> E*             
     e( 78 - 79) =     21.46306  eV     2   --> E              
     e( 78 - 79) =     21.46306  eV     2   --> E*             
     e( 80 - 80) =     21.56206  eV     1   --> A              
     e( 81 - 82) =     22.02508  eV     2   --> E              
     e( 81 - 82) =     22.02508  eV     2   --> E*             
     e( 83 - 84) =     22.39083  eV     2   --> E              
     e( 83 - 84) =     22.39083  eV     2   --> E*             

 **************************************************************************

 **************************************************************************

                    xk=(   0.37500,   0.37500,   0.37500  )

     Band symmetry, C_3 (3)     point group:

     e(  1 -  4) =    -73.35505  eV     4   -->   2 A              
     e(  1 -  4) =    -73.35505  eV     4   --> E              
     e(  1 -  4) =    -73.35505  eV     4   --> E*             
     e(  5 -  5) =    -39.53865  eV     1   -->   ?
     e(  6 -  7) =    -39.53839  eV     2   -->   ?
     e(  8 -  8) =    -39.53819  eV     1   -->   ?
     e(  9 - 10) =    -39.53635  eV     2   -->   ?
     e( 11 - 12) =    -39.53607  eV     2   -->   ?
     e( 13 - 16) =    -39.28747  eV     4   -->   2 A              
     e( 13 - 16) =    -39.28747  eV     4   --> E              
     e( 13 - 16) =    -39.28747  eV     4   --> E*             
     e( 17 - 17) =     -2.77780  eV     1   --> A              
     e( 18 - 18) =     -2.35038  eV     1   --> A              
     e( 19 - 20) =     -2.33975  eV     2   --> E              
     e( 19 - 20) =     -2.33975  eV     2   --> E*             
     e( 21 - 22) =      0.32875  eV     2   --> E              
     e( 21 - 22) =      0.32875  eV     2   --> E*             
     e( 23 - 23) =      0.45847  eV     1   --> A              
     e( 24 - 24) =      0.57701  eV     1   --> A              
     e( 25 - 25) =      5.75442  eV     1   --> A              
     e( 26 - 27) =      6.19280  eV     2   --> E              
     e( 26 - 27) =      6.19280  eV     2   --> E*             
     e( 28 - 28) =      6.40243  eV     1   --> A              
     e( 29 - 30) =      7.17454  eV     2   --> E              
     e( 29 - 30) =      7.17454  eV     2   --> E*             
     e( 31 - 31) =      7.47417  eV     1   --> A              
     e( 32 - 33) =      8.29212  eV     2   --> E              
     e( 32 - 33) =      8.29212  eV     2   --> E*             
     e( 34 - 34) =      8.42447  eV     1   --> A              
     e( 35 - 36) =      8.63357  eV     2   --> E              
     e( 35 - 36) =      8.63357  eV     2   --> E*             
     e( 37 - 38) =     10.02942  eV     2   --> E              
     e( 37 - 38) =     10.02942  eV     2   --> E*             
     e( 39 - 39) =     10.06376  eV     1   --> A              
     e( 40 - 41) =     10.27662  eV     2   --> E              
     e( 40 - 41) =     10.27662  eV     2   --> E*             
     e( 42 - 42) =     10.61166  eV     1   --> A              
     e( 43 - 44) =     10.75913  eV     2   --> E              
     e( 43 - 44) =     10.75913  eV     2   --> E*             
     e( 45 - 46) =     11.89158  eV     2   --> E              
     e( 45 - 46) =     11.89158  eV     2   --> E*             
     e( 47 - 47) =     11.89840  eV     1   --> A              
     e( 48 - 49) =     12.04656  eV     2   --> E              
     e( 48 - 49) =     12.04656  eV     2   --> E*             
     e( 50 - 50) =     12.17768  eV     1   --> A              
     e( 51 - 52) =     12.23892  eV     2   --> E              
     e( 51 - 52) =     12.23892  eV     2   --> E*             
     e( 53 - 53) =     12.48649  eV     1   --> A              
     e( 54 - 55) =     12.63278  eV     2   --> E              
     e( 54 - 55) =     12.63278  eV     2   --> E*             
     e( 56 - 56) =     12.66699  eV     1   --> A              
     e( 57 - 57) =     14.32982  eV     1   --> A              
     e( 58 - 58) =     14.61632  eV     1   --> A              
     e( 59 - 60) =     14.62857  eV     2   --> E              
     e( 59 - 60) =     14.62857  eV     2   --> E*             
     e( 61 - 62) =     15.11806  eV     2   --> E              
     e( 61 - 62) =     15.11806  eV     2   --> E*             
     e( 63 - 64) =     15.42809  eV     2   --> E              
     e( 63 - 64) =     15.42809  eV     2   --> E*             
     e( 65 - 65) =     15.81013  eV     1   --> A              
     e( 66 - 66) =     15.93611  eV     1   --> A              
     e( 67 - 68) =     16.19510  eV     2   --> E              
     e( 67 - 68) =     16.19510  eV     2   --> E*             
     e( 69 - 69) =     19.32012  eV     1   --> A              
     e( 70 - 71) =     19.46943  eV     2   --> E              
     e( 70 - 71) =     19.46943  eV     2   --> E*             
     e( 72 - 72) =     20.50754  eV     1   --> A              
     e( 73 - 73) =     20.57422  eV     1   --> A              
     e( 74 - 75) =     20.77858  eV     2   --> E              
     e( 74 - 75) =     20.77858  eV     2   --> E*             
     e( 76 - 77) =     21.04152  eV     2   --> E              
     e( 76 - 77) =     21.04152  eV     2   --> E*             
     e( 78 - 79) =     21.50554  eV     2   --> E              
     e( 78 - 79) =     21.50554  eV     2   --> E*             
     e( 80 - 80) =     21.65720  eV     1   --> A              
     e( 81 - 82) =     22.10588  eV     2   --> E              
     e( 81 - 82) =     22.10588  eV     2   --> E*             
     e( 83 - 84) =     22.57977  eV     2   --> E              
     e( 83 - 84) =     22.57977  eV     2   --> E*             

 **************************************************************************

 **************************************************************************

                    xk=(   0.35000,   0.35000,   0.35000  )

     Band symmetry, C_3 (3)     point group:

     e(  1 -  4) =    -73.35508  eV     4   -->   2 A              
     e(  1 -  4) =    -73.35508  eV     4   --> E              
     e(  1 -  4) =    -73.35508  eV     4   --> E*             
     e(  5 -  5) =    -39.53865  eV     1   -->   ?
     e(  6 -  7) =    -39.53830  eV     2   -->   ?
     e(  8 -  8) =    -39.53813  eV     1   -->   ?
     e(  9 - 10) =    -39.53649  eV     2   -->   ?
     e( 11 - 12) =    -39.53608  eV     2   -->   ?
     e( 13 - 16) =    -39.28747  eV     4   -->   2 A              
     e( 13 - 16) =    -39.28747  eV     4   --> E              
     e( 13 - 16) =    -39.28747  eV     4   --> E*             
     e( 17 - 17) =     -2.91372  eV     1   --> A              
     e( 18 - 18) =     -2.33836  eV     1   --> A              
     e( 19 - 20) =     -2.32441  eV     2   --> E              
     e( 19 - 20) =     -2.32441  eV     2   --> E*             
     e( 21 - 22) =      0.36851  eV     2   --> E              
     e( 21 - 22) =      0.36851  eV     2   --> E*             
     e( 23 - 23) =      0.55608  eV     1   --> A              
     e( 24 - 24) =      0.67683  eV     1   --> A              
     e( 25 - 25) =      5.64497  eV     1   --> A              
     e( 26 - 27) =      6.11997  eV     2   --> E              
     e( 26 - 27) =      6.11997  eV     2   --> E*             
     e( 28 - 28) =      6.42733  eV     1   --> A              
     e( 29 - 30) =      7.13698  eV     2   --> E              
     e( 29 - 30) =      7.13698  eV     2   --> E*             
     e( 31 - 31) =      7.46641  eV     1   --> A              
     e( 32 - 33) =      8.27012  eV     2   --> E              
     e( 32 - 33) =      8.27012  eV     2   --> E*             
     e( 34 - 35) =      8.63688  eV     2   --> E              
     e( 34 - 35) =      8.63688  eV     2   --> E*             
     e( 36 - 36) =      8.67909  eV     1   --> A              
     e( 37 - 37) =      9.87098  eV     1   --> A              
     e( 38 - 39) =      9.90708  eV     2   --> E              
     e( 38 - 39) =      9.90708  eV     2   --> E*             
     e( 40 - 41) =     10.19234  eV     2   --> E              
     e( 40 - 41) =     10.19234  eV     2   --> E*             
     e( 42 - 42) =     10.52245  eV     1   --> A              
     e( 43 - 44) =     10.76510  eV     2   --> E              
     e( 43 - 44) =     10.76510  eV     2   --> E*             
     e( 45 - 46) =     11.93926  eV     2   --> E              
     e( 45 - 46) =     11.93926  eV     2   --> E*             
     e( 47 - 47) =     11.95732  eV     1   --> A              
     e( 48 - 49) =     12.09291  eV     2   --> E              
     e( 48 - 49) =     12.09291  eV     2   --> E*             
     e( 50 - 50) =     12.22404  eV     1   --> A              
     e( 51 - 52) =     12.32253  eV     2   --> E              
     e( 51 - 52) =     12.32253  eV     2   --> E*             
     e( 53 - 53) =     12.49176  eV     1   --> A              
     e( 54 - 55) =     12.66290  eV     2   --> E              
     e( 54 - 55) =     12.66290  eV     2   --> E*             
     e( 56 - 56) =     12.71703  eV     1   --> A              
     e( 57 - 57) =     14.31923  eV     1   --> A              
     e( 58 - 58) =     14.69911  eV     1   --> A              
     e( 59 - 60) =     14.72874  eV     2   --> E              
     e( 59 - 60) =     14.72874  eV     2   --> E*             
     e( 61 - 62) =     15.03326  eV     2   --> E              
     e( 61 - 62) =     15.03326  eV     2   --> E*             
     e( 63 - 64) =     15.47764  eV     2   --> E              
     e( 63 - 64) =     15.47764  eV     2   --> E*             
     e( 65 - 65) =     15.67133  eV     1   --> A              
     e( 66 - 66) =     15.86773  eV     1   --> A              
     e( 67 - 68) =     16.19812  eV     2   --> E              
     e( 67 - 68) =     16.19812  eV     2   --> E*             
     e( 69 - 69) =     19.27239  eV     1   --> A              
     e( 70 - 71) =     19.40164  eV     2   --> E              
     e( 70 - 71) =     19.40164  eV     2   --> E*             
     e( 72 - 72) =     20.38697  eV     1   --> A              
     e( 73 - 74) =     20.66634  eV     2   --> E              
     e( 73 - 74) =     20.66634  eV     2   --> E*             
     e( 75 - 75) =     20.80052  eV     1   --> A              
     e( 76 - 77) =     21.03585  eV     2   --> E              
     e( 76 - 77) =     21.03585  eV     2   --> E*             
     e( 78 - 79) =     21.52810  eV     2   --> E              
     e( 78 - 79) =     21.52810  eV     2   --> E*             
     e( 80 - 80) =     21.69719  eV     1   --> A              
     e( 81 - 82) =     22.21024  eV     2   --> E              
     e( 81 - 82) =     22.21024  eV     2   --> E*             
     e( 83 - 83) =     22.77852  eV     1   -->   ?
     e( 84 - 84) =     22.82979  eV     1   -->   ?

 **************************************************************************

 **************************************************************************

                    xk=(   0.32500,   0.32500,   0.32500  )

     Band symmetry, C_3 (3)     point group:

     e(  1 -  1) =    -73.35510  eV     1   --> A              
     e(  2 -  4) =    -73.35500  eV     3   --> A              
     e(  2 -  4) =    -73.35500  eV     3   --> E              
     e(  2 -  4) =    -73.35500  eV     3   --> E*             
     e(  5 -  5) =    -39.53862  eV     1   -->   ?
     e(  6 -  7) =    -39.53821  eV     2   -->   ?
     e(  8 -  8) =    -39.53794  eV     1   -->   ?
     e(  9 - 10) =    -39.53658  eV     2   -->   ?
     e( 11 - 12) =    -39.53608  eV     2   -->   ?
     e( 13 - 16) =    -39.28746  eV     4   -->   2 A              
     e( 13 - 16) =    -39.28746  eV     4   --> E              
     e( 13 - 16) =    -39.28746  eV     4   --> E*             
     e( 17 - 17) =     -3.05300  eV     1   --> A              
     e( 18 - 18) =     -2.32289  eV     1   --> A              
     e( 19 - 20) =     -2.30586  eV     2   --> E              
     e( 19 - 20) =     -2.30586  eV     2   --> E*             
     e( 21 - 22) =      0.40985  eV     2   --> E              
     e( 21 - 22) =      0.40985  eV     2   --> E*             
     e( 23 - 23) =      0.66563  eV     1   --> A              
     e( 24 - 24) =      0.76458  eV     1   --> A              
     e( 25 - 25) =      5.56664  eV     1   --> A              
     e( 26 - 27) =      6.04594  eV     2   --> E              
     e( 26 - 27) =      6.04594  eV     2   --> E*             
     e( 28 - 28) =      6.46459  eV     1   --> A              
     e( 29 - 30) =      7.11477  eV     2   --> E              
     e( 29 - 30) =      7.11477  eV     2   --> E*             
     e( 31 - 31) =      7.45013  eV     1   --> A              
     e( 32 - 33) =      8.23621  eV     2   --> E              
     e( 32 - 33) =      8.23621  eV     2   --> E*             
     e( 34 - 35) =      8.60934  eV     2   --> E              
     e( 34 - 35) =      8.60934  eV     2   --> E*             
     e( 36 - 36) =      8.91934  eV     1   --> A              
     e( 37 - 37) =      9.69705  eV     1   --> A              
     e( 38 - 39) =      9.79333  eV     2   --> E              
     e( 38 - 39) =      9.79333  eV     2   --> E*             
     e( 40 - 41) =     10.12396  eV     2   --> E              
     e( 40 - 41) =     10.12396  eV     2   --> E*             
     e( 42 - 42) =     10.42505  eV     1   --> A              
     e( 43 - 44) =     10.77503  eV     2   --> E              
     e( 43 - 44) =     10.77503  eV     2   --> E*             
     e( 45 - 46) =     11.98872  eV     2   --> E              
     e( 45 - 46) =     11.98872  eV     2   --> E*             
     e( 47 - 47) =     12.01424  eV     1   --> A              
     e( 48 - 49) =     12.13251  eV     2   --> E              
     e( 48 - 49) =     12.13251  eV     2   --> E*             
     e( 50 - 50) =     12.22580  eV     1   --> A              
     e( 51 - 52) =     12.39047  eV     2   --> E              
     e( 51 - 52) =     12.39047  eV     2   --> E*             
     e( 53 - 53) =     12.51737  eV     1   --> A              
     e( 54 - 55) =     12.68311  eV     2   --> E              
     e( 54 - 55) =     12.68311  eV     2   --> E*             
     e( 56 - 56) =     12.76169  eV     1   --> A              
     e( 57 - 57) =     14.30708  eV     1   --> A              
     e( 58 - 58) =     14.76924  eV     1   --> A              
     e( 59 - 60) =     14.82774  eV     2   --> E              
     e( 59 - 60) =     14.82774  eV     2   --> E*             
     e( 61 - 61) =     14.94644  eV     1   -->   ?
     e( 62 - 62) =     14.94654  eV     1   -->   ?
     e( 63 - 63) =     15.52716  eV     1   --> A              
     e( 64 - 65) =     15.53498  eV     2   --> E              
     e( 64 - 65) =     15.53498  eV     2   --> E*             
     e( 66 - 66) =     15.83529  eV     1   --> A              
     e( 67 - 68) =     16.20886  eV     2   --> E              
     e( 67 - 68) =     16.20886  eV     2   --> E*             
     e( 69 - 69) =     19.26579  eV     1   --> A              
     e( 70 - 71) =     19.36771  eV     2   --> E              
     e( 70 - 71) =     19.36771  eV     2   --> E*             
     e( 72 - 72) =     20.26244  eV     1   --> A              
     e( 73 - 74) =     20.59494  eV     2   --> E              
     e( 73 - 74) =     20.59494  eV     2   --> E*             
     e( 75 - 76) =     21.04877  eV     2   --> E              
     e( 75 - 76) =     21.04877  eV     2   --> E*             
     e( 77 - 77) =     21.05478  eV     1   --> A              
     e( 78 - 79) =     21.52811  eV     2   --> E              
     e( 78 - 79) =     21.52811  eV     2   --> E*             
     e( 80 - 80) =     21.69535  eV     1   --> A              
     e( 81 - 82) =     22.32911  eV     2   --> E              
     e( 81 - 82) =     22.32911  eV     2   --> E*             
     e( 83 - 83) =     22.72326  eV     1   --> A              
     e( 84 - 84) =     22.98634  eV     1   -->   ?

 **************************************************************************

 **************************************************************************

                    xk=(   0.30000,   0.30000,   0.30000  )

     Band symmetry, C_3 (3)     point group:

     e(  1 -  1) =    -73.35509  eV     1   --> A              
     e(  2 -  4) =    -73.35498  eV     3   --> A              
     e(  2 -  4) =    -73.35498  eV     3   --> E              
     e(  2 -  4) =    -73.35498  eV     3   --> E*             
     e(  5 -  5) =    -39.53860  eV     1   -->   ?
     e(  6 -  7) =    -39.53813  eV     2   -->   ?
     e(  8 -  8) =    -39.53770  eV     1   -->   ?
     e(  9 - 10) =    -39.53668  eV     2   -->   ?
     e( 11 - 12) =    -39.53604  eV     2   -->   ?
     e( 13 - 13) =    -39.28747  eV     1   --> A              
     e( 14 - 16) =    -39.28732  eV     3   --> A              
     e( 14 - 16) =    -39.28732  eV     3   --> E              
     e( 14 - 16) =    -39.28732  eV     3   --> E*             
     e( 17 - 17) =     -3.19153  eV     1   --> A              
     e( 18 - 18) =     -2.30373  eV     1   --> A              
     e( 19 - 20) =     -2.28412  eV     2   --> E              
     e( 19 - 20) =     -2.28412  eV     2   --> E*             
     e( 21 - 22) =      0.45042  eV     2   --> E              
     e( 21 - 22) =      0.45042  eV     2   --> E*             
     e( 23 - 23) =      0.78017  eV     1   --> A              
     e( 24 - 24) =      0.83844  eV     1   --> A              
     e( 25 - 25) =      5.52200  eV     1   --> A              
     e( 26 - 27) =      5.97814  eV     2   --> E              
     e( 26 - 27) =      5.97814  eV     2   --> E*             
     e( 28 - 28) =      6.51741  eV     1   --> A              
     e( 29 - 30) =      7.10373  eV     2   --> E              
     e( 29 - 30) =      7.10373  eV     2   --> E*             
     e( 31 - 31) =      7.42346  eV     1   --> A              
     e( 32 - 33) =      8.18030  eV     2   --> E              
     e( 32 - 33) =      8.18030  eV     2   --> E*             
     e( 34 - 35) =      8.57359  eV     2   --> E              
     e( 34 - 35) =      8.57359  eV     2   --> E*             
     e( 36 - 36) =      9.12426  eV     1   --> A              
     e( 37 - 37) =      9.55781  eV     1   --> A              
     e( 38 - 39) =      9.68172  eV     2   --> E              
     e( 38 - 39) =      9.68172  eV     2   --> E*             
     e( 40 - 41) =     10.06996  eV     2   --> E              
     e( 40 - 41) =     10.06996  eV     2   --> E*             
     e( 42 - 42) =     10.31922  eV     1   --> A              
     e( 43 - 44) =     10.78492  eV     2   --> E              
     e( 43 - 44) =     10.78492  eV     2   --> E*             
     e( 45 - 46) =     12.03841  eV     2   --> E              
     e( 45 - 46) =     12.03841  eV     2   --> E*             
     e( 47 - 47) =     12.06850  eV     1   --> A              
     e( 48 - 49) =     12.16581  eV     2   --> E              
     e( 48 - 49) =     12.16581  eV     2   --> E*             
     e( 50 - 50) =     12.19405  eV     1   --> A              
     e( 51 - 52) =     12.44195  eV     2   --> E              
     e( 51 - 52) =     12.44195  eV     2   --> E*             
     e( 53 - 53) =     12.55629  eV     1   --> A              
     e( 54 - 55) =     12.68919  eV     2   --> E              
     e( 54 - 55) =     12.68919  eV     2   --> E*             
     e( 56 - 56) =     12.79798  eV     1   --> A              
     e( 57 - 57) =     14.29158  eV     1   --> A              
     e( 58 - 59) =     14.81146  eV     2   --> E              
     e( 58 - 59) =     14.81146  eV     2   --> E*             
     e( 60 - 60) =     14.81856  eV     1   --> A              
     e( 61 - 62) =     14.97686  eV     2   --> E              
     e( 61 - 62) =     14.97686  eV     2   --> E*             
     e( 63 - 63) =     15.38233  eV     1   --> A              
     e( 64 - 65) =     15.59865  eV     2   --> E              
     e( 64 - 65) =     15.59865  eV     2   --> E*             
     e( 66 - 66) =     15.85419  eV     1   --> A              
     e( 67 - 68) =     16.22882  eV     2   --> E              
     e( 67 - 68) =     16.22882  eV     2   --> E*             
     e( 69 - 69) =     19.28978  eV     1   --> A              
     e( 70 - 71) =     19.36698  eV     2   --> E              
     e( 70 - 71) =     19.36698  eV     2   --> E*             
     e( 72 - 72) =     20.14891  eV     1   --> A              
     e( 73 - 74) =     20.57113  eV     2   --> E              
     e( 73 - 74) =     20.57113  eV     2   --> E*             
     e( 75 - 76) =     21.08153  eV     2   --> E              
     e( 75 - 76) =     21.08153  eV     2   --> E*             
     e( 77 - 77) =     21.31770  eV     1   --> A              
     e( 78 - 79) =     21.50910  eV     2   --> E              
     e( 78 - 79) =     21.50910  eV     2   --> E*             
     e( 80 - 80) =     21.66654  eV     1   --> A              
     e( 81 - 82) =     22.44858  eV     2   --> E              
     e( 81 - 82) =     22.44858  eV     2   --> E*             
     e( 83 - 83) =     22.60679  eV     1   --> A              
     e( 84 - 84) =     23.20012  eV     1   -->   ?

 **************************************************************************

 **************************************************************************

                    xk=(   0.27500,   0.27500,   0.27500  )

     Band symmetry, C_3 (3)     point group:

     e(  1 -  4) =    -73.35511  eV     4   -->   2 A              
     e(  1 -  4) =    -73.35511  eV     4   --> E              
     e(  1 -  4) =    -73.35511  eV     4   --> E*             
     e(  5 -  5) =    -39.53874  eV     1   -->   ?
     e(  6 -  7) =    -39.53819  eV     2   -->   ?
     e(  8 -  8) =    -39.53753  eV     1   -->   ?
     e(  9 - 10) =    -39.53689  eV     2   -->   ?
     e( 11 - 12) =    -39.53613  eV     2   -->   ?
     e( 13 - 13) =    -39.28761  eV     1   --> A              
     e( 14 - 16) =    -39.28738  eV     3   --> A              
     e( 14 - 16) =    -39.28738  eV     3   --> E              
     e( 14 - 16) =    -39.28738  eV     3   --> E*             
     e( 17 - 17) =     -3.32614  eV     1   --> A              
     e( 18 - 18) =     -2.28079  eV     1   --> A              
     e( 19 - 20) =     -2.25932  eV     2   --> E              
     e( 19 - 20) =     -2.25932  eV     2   --> E*             
     e( 21 - 22) =      0.48794  eV     2   --> E              
     e( 21 - 22) =      0.48794  eV     2   --> E*             
     e( 23 - 23) =      0.85763  eV     1   --> A              
     e( 24 - 24) =      0.93407  eV     1   --> A              
     e( 25 - 25) =      5.51088  eV     1   --> A              
     e( 26 - 27) =      5.92300  eV     2   --> E              
     e( 26 - 27) =      5.92300  eV     2   --> E*             
     e( 28 - 28) =      6.58892  eV     1   --> A              
     e( 29 - 30) =      7.09962  eV     2   --> E              
     e( 29 - 30) =      7.09962  eV     2   --> E*             
     e( 31 - 31) =      7.38548  eV     1   --> A              
     e( 32 - 33) =      8.09565  eV     2   --> E              
     e( 32 - 33) =      8.09565  eV     2   --> E*             
     e( 34 - 35) =      8.55290  eV     2   --> E              
     e( 34 - 35) =      8.55290  eV     2   --> E*             
     e( 36 - 36) =      9.22613  eV     1   --> A              
     e( 37 - 37) =      9.51162  eV     1   --> A              
     e( 38 - 39) =      9.57013  eV     2   --> E              
     e( 38 - 39) =      9.57013  eV     2   --> E*             
     e( 40 - 41) =     10.01992  eV     2   --> E              
     e( 40 - 41) =     10.01992  eV     2   --> E*             
     e( 42 - 42) =     10.20699  eV     1   --> A              
     e( 43 - 44) =     10.79029  eV     2   --> E              
     e( 43 - 44) =     10.79029  eV     2   --> E*             
     e( 45 - 46) =     12.08613  eV     2   --> E              
     e( 45 - 46) =     12.08613  eV     2   --> E*             
     e( 47 - 47) =     12.11911  eV     1   --> A              
     e( 48 - 48) =     12.14756  eV     1   --> A              
     e( 49 - 50) =     12.19329  eV     2   --> E              
     e( 49 - 50) =     12.19329  eV     2   --> E*             
     e( 51 - 52) =     12.47726  eV     2   --> E              
     e( 51 - 52) =     12.47726  eV     2   --> E*             
     e( 53 - 53) =     12.59527  eV     1   --> A              
     e( 54 - 55) =     12.67986  eV     2   --> E              
     e( 54 - 55) =     12.67986  eV     2   --> E*             
     e( 56 - 56) =     12.82561  eV     1   --> A              
     e( 57 - 57) =     14.26979  eV     1   --> A              
     e( 58 - 59) =     14.71635  eV     2   --> E              
     e( 58 - 59) =     14.71635  eV     2   --> E*             
     e( 60 - 60) =     14.84960  eV     1   --> A              
     e( 61 - 62) =     15.09640  eV     2   --> E              
     e( 61 - 62) =     15.09640  eV     2   --> E*             
     e( 63 - 63) =     15.24503  eV     1   --> A              
     e( 64 - 65) =     15.66639  eV     2   --> E              
     e( 64 - 65) =     15.66639  eV     2   --> E*             
     e( 66 - 66) =     15.92151  eV     1   --> A              
     e( 67 - 68) =     16.25746  eV     2   --> E              
     e( 67 - 68) =     16.25746  eV     2   --> E*             
     e( 69 - 69) =     19.32825  eV     1   --> A              
     e( 70 - 71) =     19.39831  eV     2   --> E              
     e( 70 - 71) =     19.39831  eV     2   --> E*             
     e( 72 - 72) =     20.05990  eV     1   --> A              
     e( 73 - 74) =     20.59504  eV     2   --> E              
     e( 73 - 74) =     20.59504  eV     2   --> E*             
     e( 75 - 76) =     21.13118  eV     2   --> E              
     e( 75 - 76) =     21.13118  eV     2   --> E*             
     e( 77 - 78) =     21.47606  eV     2   --> E              
     e( 77 - 78) =     21.47606  eV     2   --> E*             
     e( 79 - 79) =     21.55449  eV     1   --> A              
     e( 80 - 80) =     21.64220  eV     1   --> A              
     e( 81 - 81) =     22.50367  eV     1   --> A              
     e( 82 - 83) =     22.55332  eV     2   --> E              
     e( 82 - 83) =     22.55332  eV     2   --> E*             
     e( 84 - 84) =     23.41118  eV     1   -->   ?

 **************************************************************************

 **************************************************************************

                    xk=(   0.25000,   0.25000,   0.25000  )

     Band symmetry, C_3 (3)     point group:

     e(  1 -  1) =    -73.35515  eV     1   --> A              
     e(  2 -  4) =    -73.35501  eV     3   --> A              
     e(  2 -  4) =    -73.35501  eV     3   --> E              
     e(  2 -  4) =    -73.35501  eV     3   --> E*             
     e(  5 -  5) =    -39.53877  eV     1   -->   ?
     e(  6 -  7) =    -39.53819  eV     2   -->   ?
     e(  8 -  8) =    -39.53736  eV     1   -->   ?
     e(  9 - 10) =    -39.53699  eV     2   -->   ?
     e( 11 - 12) =    -39.53621  eV     2   -->   ?
     e( 13 - 13) =    -39.28763  eV     1   --> A              
     e( 14 - 16) =    -39.28740  eV     3   --> A              
     e( 14 - 16) =    -39.28740  eV     3   --> E              
     e( 14 - 16) =    -39.28740  eV     3   --> E*             
     e( 17 - 17) =     -3.45438  eV     1   --> A              
     e( 18 - 18) =     -2.25423  eV     1   --> A              
     e( 19 - 20) =     -2.23177  eV     2   --> E              
     e( 19 - 20) =     -2.23177  eV     2   --> E*             
     e( 21 - 22) =      0.52036  eV     2   --> E              
     e( 21 - 22) =      0.52036  eV     2   --> E*             
     e( 23 - 23) =      0.88124  eV     1   --> A              
     e( 24 - 24) =      1.06441  eV     1   --> A              
     e( 25 - 25) =      5.53053  eV     1   --> A              
     e( 26 - 27) =      5.88543  eV     2   --> E              
     e( 26 - 27) =      5.88543  eV     2   --> E*             
     e( 28 - 28) =      6.68173  eV     1   --> A              
     e( 29 - 30) =      7.09886  eV     2   --> E              
     e( 29 - 30) =      7.09886  eV     2   --> E*             
     e( 31 - 31) =      7.33660  eV     1   --> A              
     e( 32 - 33) =      7.98836  eV     2   --> E              
     e( 32 - 33) =      7.98836  eV     2   --> E*             
     e( 34 - 35) =      8.55555  eV     2   --> E              
     e( 34 - 35) =      8.55555  eV     2   --> E*             
     e( 36 - 36) =      9.17856  eV     1   --> A              
     e( 37 - 38) =      9.46010  eV     2   --> E              
     e( 37 - 38) =      9.46010  eV     2   --> E*             
     e( 39 - 39) =      9.58413  eV     1   --> A              
     e( 40 - 41) =      9.96226  eV     2   --> E              
     e( 40 - 41) =      9.96226  eV     2   --> E*             
     e( 42 - 42) =     10.10142  eV     1   --> A              
     e( 43 - 44) =     10.78663  eV     2   --> E              
     e( 43 - 44) =     10.78663  eV     2   --> E*             
     e( 45 - 45) =     12.09490  eV     1   --> A              
     e( 46 - 47) =     12.12977  eV     2   --> E              
     e( 46 - 47) =     12.12977  eV     2   --> E*             
     e( 48 - 48) =     12.17235  eV     1   --> A              
     e( 49 - 50) =     12.21487  eV     2   --> E              
     e( 49 - 50) =     12.21487  eV     2   --> E*             
     e( 51 - 52) =     12.49736  eV     2   --> E              
     e( 51 - 52) =     12.49736  eV     2   --> E*             
     e( 53 - 53) =     12.62581  eV     1   --> A              
     e( 54 - 55) =     12.65798  eV     2   --> E              
     e( 54 - 55) =     12.65798  eV     2   --> E*             
     e( 56 - 56) =     12.84573  eV     1   --> A              
     e( 57 - 57) =     14.23888  eV     1   --> A              
     e( 58 - 59) =     14.62670  eV     2   --> E              
     e( 58 - 59) =     14.62670  eV     2   --> E*             
     e( 60 - 60) =     14.86429  eV     1   --> A              
     e( 61 - 61) =     15.13435  eV     1   --> A              
     e( 62 - 63) =     15.22996  eV     2   --> E              
     e( 62 - 63) =     15.22996  eV     2   --> E*             
     e( 64 - 65) =     15.73609  eV     2   --> E              
     e( 64 - 65) =     15.73609  eV     2   --> E*             
     e( 66 - 66) =     16.01862  eV     1   --> A              
     e( 67 - 68) =     16.29220  eV     2   --> E              
     e( 67 - 68) =     16.29220  eV     2   --> E*             
     e( 69 - 69) =     19.35993  eV     1   --> A              
     e( 70 - 71) =     19.46167  eV     2   --> E              
     e( 70 - 71) =     19.46167  eV     2   --> E*             
     e( 72 - 72) =     20.01664  eV     1   --> A              
     e( 73 - 74) =     20.66161  eV     2   --> E              
     e( 73 - 74) =     20.66161  eV     2   --> E*             
     e( 75 - 76) =     21.18447  eV     2   --> E              
     e( 75 - 76) =     21.18447  eV     2   --> E*             
     e( 77 - 78) =     21.43989  eV     2   --> E              
     e( 77 - 78) =     21.43989  eV     2   --> E*             
     e( 79 - 79) =     21.56410  eV     1   --> A              
     e( 80 - 80) =     21.81059  eV     1   --> A              
     e( 81 - 81) =     22.43994  eV     1   --> A              
     e( 82 - 83) =     22.62886  eV     2   --> E              
     e( 82 - 83) =     22.62886  eV     2   --> E*             
     e( 84 - 84) =     23.60225  eV     1   -->   ?

 **************************************************************************

 **************************************************************************

                    xk=(   0.22500,   0.22500,   0.22500  )

     Band symmetry, C_3 (3)     point group:

     e(  1 -  1) =    -73.35519  eV     1   --> A              
     e(  2 -  4) =    -73.35500  eV     3   --> A              
     e(  2 -  4) =    -73.35500  eV     3   --> E              
     e(  2 -  4) =    -73.35500  eV     3   --> E*             
     e(  5 -  5) =    -39.53884  eV     1   -->   ?
     e(  6 -  7) =    -39.53824  eV     2   -->   ?
     e(  8 -  8) =    -39.53719  eV     1   -->   ?
     e(  9 - 10) =    -39.53701  eV     2   -->   ?
     e( 11 - 12) =    -39.53625  eV     2   -->   ?
     e( 13 - 13) =    -39.28767  eV     1   --> A              
     e( 14 - 16) =    -39.28742  eV     3   --> A              
     e( 14 - 16) =    -39.28742  eV     3   --> E              
     e( 14 - 16) =    -39.28742  eV     3   --> E*             
     e( 17 - 17) =     -3.57440  eV     1   --> A              
     e( 18 - 18) =     -2.22443  eV     1   --> A              
     e( 19 - 20) =     -2.20195  eV     2   --> E              
     e( 19 - 20) =     -2.20195  eV     2   --> E*             
     e( 21 - 22) =      0.54613  eV     2   --> E              
     e( 21 - 22) =      0.54613  eV     2   --> E*             
     e( 23 - 23) =      0.87720  eV     1   --> A              
     e( 24 - 24) =      1.20180  eV     1   --> A              
     e( 25 - 25) =      5.57625  eV     1   --> A              
     e( 26 - 27) =      5.86858  eV     2   --> E              
     e( 26 - 27) =      5.86858  eV     2   --> E*             
     e( 28 - 28) =      6.79715  eV     1   --> A              
     e( 29 - 30) =      7.09865  eV     2   --> E              
     e( 29 - 30) =      7.09865  eV     2   --> E*             
     e( 31 - 31) =      7.27898  eV     1   --> A              
     e( 32 - 33) =      7.87238  eV     2   --> E              
     e( 32 - 33) =      7.87238  eV     2   --> E*             
     e( 34 - 35) =      8.57734  eV     2   --> E              
     e( 34 - 35) =      8.57734  eV     2   --> E*             
     e( 36 - 36) =      9.09369  eV     1   --> A              
     e( 37 - 38) =      9.35445  eV     2   --> E              
     e( 37 - 38) =      9.35445  eV     2   --> E*             
     e( 39 - 39) =      9.61389  eV     1   --> A              
     e( 40 - 41) =      9.88922  eV     2   --> E              
     e( 40 - 41) =      9.88922  eV     2   --> E*             
     e( 42 - 42) =     10.04559  eV     1   --> A              
     e( 43 - 44) =     10.77039  eV     2   --> E              
     e( 43 - 44) =     10.77039  eV     2   --> E*             
     e( 45 - 45) =     12.05191  eV     1   --> A              
     e( 46 - 47) =     12.16562  eV     2   --> E              
     e( 46 - 47) =     12.16562  eV     2   --> E*             
     e( 48 - 48) =     12.22224  eV     1   --> A              
     e( 49 - 50) =     12.22948  eV     2   --> E              
     e( 49 - 50) =     12.22948  eV     2   --> E*             
     e( 51 - 52) =     12.50371  eV     2   --> E              
     e( 51 - 52) =     12.50371  eV     2   --> E*             
     e( 53 - 54) =     12.63088  eV     2   --> E              
     e( 53 - 54) =     12.63088  eV     2   --> E*             
     e( 55 - 55) =     12.64339  eV     1   --> A              
     e( 56 - 56) =     12.85884  eV     1   --> A              
     e( 57 - 57) =     14.19681  eV     1   --> A              
     e( 58 - 59) =     14.55321  eV     2   --> E              
     e( 58 - 59) =     14.55321  eV     2   --> E*             
     e( 60 - 60) =     14.83543  eV     1   --> A              
     e( 61 - 61) =     15.09586  eV     1   --> A              
     e( 62 - 63) =     15.37315  eV     2   --> E              
     e( 62 - 63) =     15.37315  eV     2   --> E*             
     e( 64 - 65) =     15.80651  eV     2   --> E              
     e( 64 - 65) =     15.80651  eV     2   --> E*             
     e( 66 - 66) =     16.12281  eV     1   --> A              
     e( 67 - 68) =     16.32916  eV     2   --> E              
     e( 67 - 68) =     16.32916  eV     2   --> E*             
     e( 69 - 69) =     19.36937  eV     1   --> A              
     e( 70 - 71) =     19.55765  eV     2   --> E              
     e( 70 - 71) =     19.55765  eV     2   --> E*             
     e( 72 - 72) =     20.03879  eV     1   --> A              
     e( 73 - 74) =     20.76096  eV     2   --> E              
     e( 73 - 74) =     20.76096  eV     2   --> E*             
     e( 75 - 76) =     21.20327  eV     2   --> E              
     e( 75 - 76) =     21.20327  eV     2   --> E*             
     e( 77 - 78) =     21.43383  eV     2   --> E              
     e( 77 - 78) =     21.43383  eV     2   --> E*             
     e( 79 - 79) =     21.53735  eV     1   --> A              
     e( 80 - 80) =     21.95499  eV     1   --> A              
     e( 81 - 81) =     22.43885  eV     1   --> A              
     e( 82 - 83) =     22.66682  eV     2   --> E              
     e( 82 - 83) =     22.66682  eV     2   --> E*             
     e( 84 - 84) =     23.75212  eV     1   -->   ?

 **************************************************************************

 **************************************************************************

                    xk=(   0.20000,   0.20000,   0.20000  )

     Band symmetry, C_3 (3)     point group:

     e(  1 -  1) =    -73.35517  eV     1   --> A              
     e(  2 -  4) =    -73.35501  eV     3   --> A              
     e(  2 -  4) =    -73.35501  eV     3   --> E              
     e(  2 -  4) =    -73.35501  eV     3   --> E*             
     e(  5 -  5) =    -39.53883  eV     1   -->   ?
     e(  6 -  7) =    -39.53830  eV     2   -->   ?
     e(  8 -  9) =    -39.53708  eV     2   -->   ?
     e( 10 - 10) =    -39.53683  eV     1   -->   ?
     e( 11 - 12) =    -39.53625  eV     2   -->   ?
     e( 13 - 13) =    -39.28773  eV     1   --> A              
     e( 14 - 15) =    -39.28740  eV     2   --> E              
     e( 14 - 15) =    -39.28740  eV     2   --> E*             
     e( 16 - 16) =    -39.28728  eV     1   --> A              
     e( 17 - 17) =     -3.68473  eV     1   --> A              
     e( 18 - 18) =     -2.19202  eV     1   --> A              
     e( 19 - 20) =     -2.17054  eV     2   --> E              
     e( 19 - 20) =     -2.17054  eV     2   --> E*             
     e( 21 - 22) =      0.56430  eV     2   --> E              
     e( 21 - 22) =      0.56430  eV     2   --> E*             
     e( 23 - 23) =      0.85252  eV     1   --> A              
     e( 24 - 24) =      1.33961  eV     1   --> A              
     e( 25 - 25) =      5.64243  eV     1   --> A              
     e( 26 - 27) =      5.87377  eV     2   --> E              
     e( 26 - 27) =      5.87377  eV     2   --> E*             
     e( 28 - 28) =      6.93346  eV     1   --> A              
     e( 29 - 30) =      7.09668  eV     2   --> E              
     e( 29 - 30) =      7.09668  eV     2   --> E*             
     e( 31 - 31) =      7.21726  eV     1   --> A              
     e( 32 - 33) =      7.76078  eV     2   --> E              
     e( 32 - 33) =      7.76078  eV     2   --> E*             
     e( 34 - 35) =      8.60965  eV     2   --> E              
     e( 34 - 35) =      8.60965  eV     2   --> E*             
     e( 36 - 36) =      9.01022  eV     1   --> A              
     e( 37 - 38) =      9.25676  eV     2   --> E              
     e( 37 - 38) =      9.25676  eV     2   --> E*             
     e( 39 - 39) =      9.52748  eV     1   --> A              
     e( 40 - 41) =      9.79831  eV     2   --> E              
     e( 40 - 41) =      9.79831  eV     2   --> E*             
     e( 42 - 42) =     10.07211  eV     1   --> A              
     e( 43 - 44) =     10.73996  eV     2   --> E              
     e( 43 - 44) =     10.73996  eV     2   --> E*             
     e( 45 - 45) =     12.01903  eV     1   --> A              
     e( 46 - 47) =     12.18056  eV     2   --> E              
     e( 46 - 47) =     12.18056  eV     2   --> E*             
     e( 48 - 49) =     12.24310  eV     2   --> E              
     e( 48 - 49) =     12.24310  eV     2   --> E*             
     e( 50 - 50) =     12.27279  eV     1   --> A              
     e( 51 - 52) =     12.50099  eV     2   --> E              
     e( 51 - 52) =     12.50099  eV     2   --> E*             
     e( 53 - 54) =     12.60740  eV     2   --> E              
     e( 53 - 54) =     12.60740  eV     2   --> E*             
     e( 55 - 55) =     12.64709  eV     1   --> A              
     e( 56 - 56) =     12.86488  eV     1   --> A              
     e( 57 - 57) =     14.14314  eV     1   --> A              
     e( 58 - 59) =     14.49964  eV     2   --> E              
     e( 58 - 59) =     14.49964  eV     2   --> E*             
     e( 60 - 60) =     14.75527  eV     1   --> A              
     e( 61 - 61) =     15.14735  eV     1   --> A              
     e( 62 - 63) =     15.52209  eV     2   --> E              
     e( 62 - 63) =     15.52209  eV     2   --> E*             
     e( 64 - 65) =     15.87847  eV     2   --> E              
     e( 64 - 65) =     15.87847  eV     2   --> E*             
     e( 66 - 66) =     16.21536  eV     1   --> A              
     e( 67 - 68) =     16.36465  eV     2   --> E              
     e( 67 - 68) =     16.36465  eV     2   --> E*             
     e( 69 - 69) =     19.36526  eV     1   --> A              
     e( 70 - 71) =     19.68572  eV     2   --> E              
     e( 70 - 71) =     19.68572  eV     2   --> E*             
     e( 72 - 72) =     20.12527  eV     1   --> A              
     e( 73 - 74) =     20.87019  eV     2   --> E              
     e( 73 - 74) =     20.87019  eV     2   --> E*             
     e( 75 - 76) =     21.16679  eV     2   --> E              
     e( 75 - 76) =     21.16679  eV     2   --> E*             
     e( 77 - 78) =     21.48361  eV     2   --> E              
     e( 77 - 78) =     21.48361  eV     2   --> E*             
     e( 79 - 79) =     21.53676  eV     1   --> A              
     e( 80 - 80) =     22.01098  eV     1   --> A              
     e( 81 - 81) =     22.47964  eV     1   --> A              
     e( 82 - 83) =     22.67198  eV     2   --> E              
     e( 82 - 83) =     22.67198  eV     2   --> E*             
     e( 84 - 84) =     23.85368  eV     1   -->   ?

 **************************************************************************

 **************************************************************************

                    xk=(   0.17500,   0.17500,   0.17500  )

     Band symmetry, C_3 (3)     point group:

     e(  1 -  1) =    -73.35525  eV     1   --> A              
     e(  2 -  4) =    -73.35499  eV     3   --> A              
     e(  2 -  4) =    -73.35499  eV     3   --> E              
     e(  2 -  4) =    -73.35499  eV     3   --> E*             
     e(  5 -  5) =    -39.53882  eV     1   -->   ?
     e(  6 -  7) =    -39.53834  eV     2   -->   ?
     e(  8 -  9) =    -39.53705  eV     2   -->   ?
     e( 10 - 10) =    -39.53681  eV     1   -->   ?
     e( 11 - 12) =    -39.53632  eV     2   -->   ?
     e( 13 - 13) =    -39.28774  eV     1   --> A              
     e( 14 - 15) =    -39.28741  eV     2   --> E              
     e( 14 - 15) =    -39.28741  eV     2   --> E*             
     e( 16 - 16) =    -39.28730  eV     1   --> A              
     e( 17 - 17) =     -3.78423  eV     1   --> A              
     e( 18 - 18) =     -2.15792  eV     1   --> A              
     e( 19 - 20) =     -2.13843  eV     2   --> E              
     e( 19 - 20) =     -2.13843  eV     2   --> E*             
     e( 21 - 22) =      0.57473  eV     2   --> E              
     e( 21 - 22) =      0.57473  eV     2   --> E*             
     e( 23 - 23) =      0.81270  eV     1   --> A              
     e( 24 - 24) =      1.47378  eV     1   --> A              
     e( 25 - 25) =      5.72362  eV     1   --> A              
     e( 26 - 27) =      5.90038  eV     2   --> E              
     e( 26 - 27) =      5.90038  eV     2   --> E*             
     e( 28 - 28) =      7.07181  eV     1   --> A              
     e( 29 - 30) =      7.09087  eV     2   --> E              
     e( 29 - 30) =      7.09087  eV     2   --> E*             
     e( 31 - 31) =      7.17165  eV     1   --> A              
     e( 32 - 33) =      7.66406  eV     2   --> E              
     e( 32 - 33) =      7.66406  eV     2   --> E*             
     e( 34 - 35) =      8.63956  eV     2   --> E              
     e( 34 - 35) =      8.63956  eV     2   --> E*             
     e( 36 - 36) =      8.92464  eV     1   --> A              
     e( 37 - 38) =      9.17337  eV     2   --> E              
     e( 37 - 38) =      9.17337  eV     2   --> E*             
     e( 39 - 39) =      9.38059  eV     1   --> A              
     e( 40 - 41) =      9.69256  eV     2   --> E              
     e( 40 - 41) =      9.69256  eV     2   --> E*             
     e( 42 - 42) =     10.13192  eV     1   --> A              
     e( 43 - 44) =     10.69564  eV     2   --> E              
     e( 43 - 44) =     10.69564  eV     2   --> E*             
     e( 45 - 45) =     11.99461  eV     1   --> A              
     e( 46 - 47) =     12.15617  eV     2   --> E              
     e( 46 - 47) =     12.15617  eV     2   --> E*             
     e( 48 - 49) =     12.26853  eV     2   --> E              
     e( 48 - 49) =     12.26853  eV     2   --> E*             
     e( 50 - 50) =     12.32380  eV     1   --> A              
     e( 51 - 52) =     12.49882  eV     2   --> E              
     e( 51 - 52) =     12.49882  eV     2   --> E*             
     e( 53 - 54) =     12.59111  eV     2   --> E              
     e( 53 - 54) =     12.59111  eV     2   --> E*             
     e( 55 - 55) =     12.63850  eV     1   --> A              
     e( 56 - 56) =     12.86419  eV     1   --> A              
     e( 57 - 57) =     14.07696  eV     1   --> A              
     e( 58 - 59) =     14.46579  eV     2   --> E              
     e( 58 - 59) =     14.46579  eV     2   --> E*             
     e( 60 - 60) =     14.66547  eV     1   --> A              
     e( 61 - 61) =     15.25030  eV     1   --> A              
     e( 62 - 63) =     15.66821  eV     2   --> E              
     e( 62 - 63) =     15.66821  eV     2   --> E*             
     e( 64 - 65) =     15.95566  eV     2   --> E              
     e( 64 - 65) =     15.95566  eV     2   --> E*             
     e( 66 - 66) =     16.28445  eV     1   --> A              
     e( 67 - 68) =     16.39705  eV     2   --> E              
     e( 67 - 68) =     16.39705  eV     2   --> E*             
     e( 69 - 69) =     19.37111  eV     1   --> A              
     e( 70 - 71) =     19.84156  eV     2   --> E              
     e( 70 - 71) =     19.84156  eV     2   --> E*             
     e( 72 - 72) =     20.25985  eV     1   --> A              
     e( 73 - 74) =     20.90378  eV     2   --> E              
     e( 73 - 74) =     20.90378  eV     2   --> E*             
     e( 75 - 76) =     21.18040  eV     2   --> E              
     e( 75 - 76) =     21.18040  eV     2   --> E*             
     e( 77 - 78) =     21.55446  eV     2   --> E              
     e( 77 - 78) =     21.55446  eV     2   --> E*             
     e( 79 - 79) =     21.57058  eV     1   --> A              
     e( 80 - 80) =     22.01775  eV     1   --> A              
     e( 81 - 81) =     22.47915  eV     1   --> A              
     e( 82 - 83) =     22.66098  eV     2   --> E              
     e( 82 - 83) =     22.66098  eV     2   --> E*             
     e( 84 - 84) =     23.91263  eV     1   -->   ?

 **************************************************************************

 **************************************************************************

                    xk=(   0.15000,   0.15000,   0.15000  )

     Band symmetry, C_3 (3)     point group:

     e(  1 -  1) =    -73.35527  eV     1   --> A              
     e(  2 -  4) =    -73.35498  eV     3   --> A              
     e(  2 -  4) =    -73.35498  eV     3   --> E              
     e(  2 -  4) =    -73.35498  eV     3   --> E*             
     e(  5 -  5) =    -39.53884  eV     1   -->   ?
     e(  6 -  7) =    -39.53842  eV     2   -->   ?
     e(  8 -  9) =    -39.53703  eV     2   -->   ?
     e( 10 - 10) =    -39.53669  eV     1   -->   ?
     e( 11 - 12) =    -39.53632  eV     2   -->   ?
     e( 13 - 13) =    -39.28777  eV     1   --> A              
     e( 14 - 16) =    -39.28740  eV     3   --> A              
     e( 14 - 16) =    -39.28740  eV     3   --> E              
     e( 14 - 16) =    -39.28740  eV     3   --> E*             
     e( 17 - 17) =     -3.87198  eV     1   --> A              
     e( 18 - 18) =     -2.12334  eV     1   --> A              
     e( 19 - 20) =     -2.10668  eV     2   --> E              
     e( 19 - 20) =     -2.10668  eV     2   --> E*             
     e( 21 - 22) =      0.57806  eV     2   --> E              
     e( 21 - 22) =      0.57806  eV     2   --> E*             
     e( 23 - 23) =      0.76343  eV     1   --> A              
     e( 24 - 24) =      1.60050  eV     1   --> A              
     e( 25 - 25) =      5.81496  eV     1   --> A              
     e( 26 - 27) =      5.94568  eV     2   --> E              
     e( 26 - 27) =      5.94568  eV     2   --> E*             
     e( 28 - 28) =      7.07022  eV     1   --> A              
     e( 29 - 30) =      7.07918  eV     2   --> E              
     e( 29 - 30) =      7.07918  eV     2   --> E*             
     e( 31 - 31) =      7.28311  eV     1   --> A              
     e( 32 - 33) =      7.59116  eV     2   --> E              
     e( 32 - 33) =      7.59116  eV     2   --> E*             
     e( 34 - 35) =      8.64565  eV     2   --> E              
     e( 34 - 35) =      8.64565  eV     2   --> E*             
     e( 36 - 36) =      8.81703  eV     1   --> A              
     e( 37 - 38) =      9.11702  eV     2   --> E              
     e( 37 - 38) =      9.11702  eV     2   --> E*             
     e( 39 - 39) =      9.23785  eV     1   --> A              
     e( 40 - 41) =      9.58075  eV     2   --> E              
     e( 40 - 41) =      9.58075  eV     2   --> E*             
     e( 42 - 42) =     10.18798  eV     1   --> A              
     e( 43 - 44) =     10.63908  eV     2   --> E              
     e( 43 - 44) =     10.63908  eV     2   --> E*             
     e( 45 - 45) =     11.97323  eV     1   --> A              
     e( 46 - 47) =     12.10235  eV     2   --> E              
     e( 46 - 47) =     12.10235  eV     2   --> E*             
     e( 48 - 49) =     12.29925  eV     2   --> E              
     e( 48 - 49) =     12.29925  eV     2   --> E*             
     e( 50 - 50) =     12.37432  eV     1   --> A              
     e( 51 - 52) =     12.50351  eV     2   --> E              
     e( 51 - 52) =     12.50351  eV     2   --> E*             
     e( 53 - 54) =     12.57995  eV     2   --> E              
     e( 53 - 54) =     12.57995  eV     2   --> E*             
     e( 55 - 55) =     12.62120  eV     1   --> A              
     e( 56 - 56) =     12.85853  eV     1   --> A              
     e( 57 - 57) =     13.99606  eV     1   --> A              
     e( 58 - 59) =     14.44862  eV     2   --> E              
     e( 58 - 59) =     14.44862  eV     2   --> E*             
     e( 60 - 60) =     14.58819  eV     1   --> A              
     e( 61 - 61) =     15.38172  eV     1   --> A              
     e( 62 - 63) =     15.79711  eV     2   --> E              
     e( 62 - 63) =     15.79711  eV     2   --> E*             
     e( 64 - 65) =     16.04403  eV     2   --> E              
     e( 64 - 65) =     16.04403  eV     2   --> E*             
     e( 66 - 66) =     16.32630  eV     1   --> A              
     e( 67 - 68) =     16.42925  eV     2   --> E              
     e( 67 - 68) =     16.42925  eV     2   --> E*             
     e( 69 - 69) =     19.40260  eV     1   --> A              
     e( 70 - 71) =     20.01070  eV     2   --> E              
     e( 70 - 71) =     20.01070  eV     2   --> E*             
     e( 72 - 72) =     20.42992  eV     1   --> A              
     e( 73 - 74) =     20.81865  eV     2   --> E              
     e( 73 - 74) =     20.81865  eV     2   --> E*             
     e( 75 - 76) =     21.31194  eV     2   --> E              
     e( 75 - 76) =     21.31194  eV     2   --> E*             
     e( 77 - 78) =     21.62098  eV     2   --> E              
     e( 77 - 78) =     21.62098  eV     2   --> E*             
     e( 79 - 79) =     21.63834  eV     1   --> A              
     e( 80 - 80) =     22.00431  eV     1   --> A              
     e( 81 - 81) =     22.38942  eV     1   --> A              
     e( 82 - 83) =     22.64952  eV     2   --> E              
     e( 82 - 83) =     22.64952  eV     2   --> E*             
     e( 84 - 84) =     23.92711  eV     1   -->   ?

 **************************************************************************

 **************************************************************************

                    xk=(   0.12500,   0.12500,   0.12500  )

     Band symmetry, C_3 (3)     point group:

     e(  1 -  1) =    -73.35529  eV     1   --> A              
     e(  2 -  4) =    -73.35498  eV     3   --> A              
     e(  2 -  4) =    -73.35498  eV     3   --> E              
     e(  2 -  4) =    -73.35498  eV     3   --> E*             
     e(  5 -  5) =    -39.53886  eV     1   -->   ?
     e(  6 -  7) =    -39.53855  eV     2   -->   ?
     e(  8 -  9) =    -39.53705  eV     2   -->   ?
     e( 10 - 10) =    -39.53655  eV     1   -->   ?
     e( 11 - 12) =    -39.53633  eV     2   -->   ?
     e( 13 - 13) =    -39.28783  eV     1   --> A              
     e( 14 - 16) =    -39.28740  eV     3   --> A              
     e( 14 - 16) =    -39.28740  eV     3   --> E              
     e( 14 - 16) =    -39.28740  eV     3   --> E*             
     e( 17 - 17) =     -3.94728  eV     1   --> A              
     e( 18 - 18) =     -2.08972  eV     1   --> A              
     e( 19 - 20) =     -2.07651  eV     2   --> E              
     e( 19 - 20) =     -2.07651  eV     2   --> E*             
     e( 21 - 22) =      0.57568  eV     2   --> E              
     e( 21 - 22) =      0.57568  eV     2   --> E*             
     e( 23 - 23) =      0.71032  eV     1   --> A              
     e( 24 - 24) =      1.71599  eV     1   --> A              
     e( 25 - 25) =      5.91180  eV     1   --> A              
     e( 26 - 27) =      6.00474  eV     2   --> E              
     e( 26 - 27) =      6.00474  eV     2   --> E*             
     e( 28 - 28) =      7.02072  eV     1   --> A              
     e( 29 - 30) =      7.06050  eV     2   --> E              
     e( 29 - 30) =      7.06050  eV     2   --> E*             
     e( 31 - 31) =      7.45581  eV     1   --> A              
     e( 32 - 33) =      7.54956  eV     2   --> E              
     e( 32 - 33) =      7.54956  eV     2   --> E*             
     e( 34 - 35) =      8.60246  eV     2   --> E              
     e( 34 - 35) =      8.60246  eV     2   --> E*             
     e( 36 - 36) =      8.66623  eV     1   --> A              
     e( 37 - 38) =      9.10084  eV     2   --> E              
     e( 37 - 38) =      9.10084  eV     2   --> E*             
     e( 39 - 39) =      9.14023  eV     1   --> A              
     e( 40 - 41) =      9.47742  eV     2   --> E              
     e( 40 - 41) =      9.47742  eV     2   --> E*             
     e( 42 - 42) =     10.23101  eV     1   --> A              
     e( 43 - 44) =     10.57261  eV     2   --> E              
     e( 43 - 44) =     10.57261  eV     2   --> E*             
     e( 45 - 45) =     11.94923  eV     1   --> A              
[...]
     e( 22 - 22) =      0.57250  eV     1   --> A''            
     e( 23 - 23) =      0.58440  eV     1   --> A'             
     e( 24 - 24) =      1.93549  eV     1   --> A''            
     e( 25 - 25) =      6.13076  eV     1   --> A''            
     e( 26 - 26) =      6.13985  eV     1   --> A'             
     e( 27 - 27) =      6.20923  eV     1   --> A''            
     e( 28 - 28) =      6.87866  eV     1   --> A'             
     e( 29 - 29) =      6.99504  eV     1   --> A''            
     e( 30 - 30) =      7.07349  eV     1   --> A'             
     e( 31 - 31) =      7.49307  eV     1   --> A''            
     e( 32 - 32) =      7.75822  eV     1   --> A''            
     e( 33 - 33) =      7.85076  eV     1   --> A'             
     e( 34 - 34) =      8.13765  eV     1   --> A'             
     e( 35 - 35) =      8.23230  eV     1   --> A''            
     e( 36 - 36) =      8.34644  eV     1   --> A''            
     e( 37 - 37) =      9.04218  eV     1   --> A''            
     e( 38 - 38) =      9.10422  eV     1   --> A'             
     e( 39 - 39) =      9.15668  eV     1   --> A''            
     e( 40 - 40) =      9.35085  eV     1   --> A'             
     e( 41 - 41) =      9.43057  eV     1   --> A'             
     e( 42 - 42) =     10.24037  eV     1   --> A''            
     e( 43 - 43) =     10.34774  eV     1   --> A'             
     e( 44 - 44) =     10.45687  eV     1   --> A'             
     e( 45 - 45) =     11.85678  eV     1   --> A''            
     e( 46 - 46) =     11.86742  eV     1   --> A''            
     e( 47 - 47) =     11.90844  eV     1   --> A'             
     e( 48 - 48) =     12.37436  eV     1   --> A'             
     e( 49 - 49) =     12.40271  eV     1   --> A'             
     e( 50 - 50) =     12.51747  eV     1   --> A''            
     e( 51 - 51) =     12.52673  eV     1   --> A'             
     e( 52 - 52) =     12.54793  eV     1   --> A''            
     e( 53 - 53) =     12.56298  eV     1   --> A'             
     e( 54 - 54) =     12.56311  eV     1   --> A''            
     e( 55 - 55) =     12.56696  eV     1   --> A''            
     e( 56 - 56) =     12.83166  eV     1   --> A'             
     e( 57 - 57) =     13.62891  eV     1   --> A''            
     e( 58 - 58) =     14.44889  eV     1   --> A'             
     e( 59 - 59) =     14.45988  eV     1   --> A''            
     e( 60 - 60) =     14.47602  eV     1   --> A''            
     e( 61 - 61) =     15.90807  eV     1   --> A'             
     e( 62 - 62) =     16.00861  eV     1   --> A''            
     e( 63 - 63) =     16.07992  eV     1   --> A'             
     e( 64 - 64) =     16.22331  eV     1   --> A''            
     e( 65 - 65) =     16.28235  eV     1   --> A'             
     e( 66 - 66) =     16.31306  eV     1   --> A''            
     e( 67 - 67) =     16.63496  eV     1   --> A'             
     e( 68 - 68) =     16.77509  eV     1   --> A'             
     e( 69 - 69) =     19.75063  eV     1   --> A'             
     e( 70 - 70) =     19.84437  eV     1   --> A''            
     e( 71 - 71) =     20.05506  eV     1   --> A'             
     e( 72 - 72) =     21.02707  eV     1   --> A''            
     e( 73 - 73) =     21.26454  eV     1   --> A''            
     e( 74 - 74) =     21.28040  eV     1   --> A'             
     e( 75 - 75) =     21.45924  eV     1   --> A'             
     e( 76 - 76) =     21.54922  eV     1   --> A''            
     e( 77 - 77) =     21.63355  eV     1   --> A'             
     e( 78 - 78) =     21.82464  eV     1   --> A''            
     e( 79 - 79) =     22.00243  eV     1   --> A'             
     e( 80 - 80) =     22.06781  eV     1   --> A''            
     e( 81 - 81) =     22.38118  eV     1   --> A'             
     e( 82 - 82) =     22.46251  eV     1   --> A''            
     e( 83 - 83) =     22.54787  eV     1   --> A''            
     e( 84 - 84) =     23.55961  eV     1   -->   ?

 **************************************************************************

 **************************************************************************

                    xk=(   0.05000,   0.05000,   0.00000  )

     Band symmetry, C_s (m)     point group:

     e(  1 -  1) =    -73.35537  eV     1   --> A'             
     e(  2 -  4) =    -73.35501  eV     3   --> A'             
     e(  2 -  4) =    -73.35501  eV     3   -->   2 A''            
     e(  5 -  5) =    -39.53895  eV     1   --> A'             
     e(  6 -  7) =    -39.53884  eV     2   --> A'             
     e(  6 -  7) =    -39.53884  eV     2   --> A''            
     e(  8 -  8) =    -39.53710  eV     1   --> A''            
     e(  9 -  9) =    -39.53699  eV     1   --> A''            
     e( 10 - 12) =    -39.53641  eV     3   -->   2 A'             
     e( 10 - 12) =    -39.53641  eV     3   --> A''            
     e( 13 - 13) =    -39.28800  eV     1   --> A''            
     e( 14 - 16) =    -39.28748  eV     3   -->   2 A'             
     e( 14 - 16) =    -39.28748  eV     3   --> A''            
     e( 17 - 17) =     -4.10295  eV     1   --> A'             
     e( 18 - 18) =     -2.01247  eV     1   --> A''            
     e( 19 - 19) =     -2.01222  eV     1   --> A'             
     e( 20 - 20) =     -1.98922  eV     1   --> A''            
     e( 21 - 21) =      0.54833  eV     1   --> A'             
     e( 22 - 22) =      0.55880  eV     1   --> A''            
     e( 23 - 23) =      0.56406  eV     1   --> A'             
     e( 24 - 24) =      1.97653  eV     1   --> A''            
     e( 25 - 25) =      6.18552  eV     1   --> A''            
     e( 26 - 26) =      6.19044  eV     1   --> A'             
     e( 27 - 27) =      6.22290  eV     1   --> A''            
     e( 28 - 28) =      6.92232  eV     1   --> A'             
     e( 29 - 29) =      6.98162  eV     1   --> A''            
     e( 30 - 30) =      7.01915  eV     1   --> A'             
     e( 31 - 31) =      7.61050  eV     1   --> A''            
     e( 32 - 32) =      7.76200  eV     1   --> A''            
     e( 33 - 33) =      7.92621  eV     1   --> A'             
     e( 34 - 34) =      8.04980  eV     1   --> A'             
     e( 35 - 35) =      8.11278  eV     1   --> A''            
     e( 36 - 36) =      8.19467  eV     1   --> A''            
     e( 37 - 37) =      9.06242  eV     1   --> A''            
     e( 38 - 38) =      9.09562  eV     1   --> A'             
     e( 39 - 39) =      9.11497  eV     1   --> A''            
     e( 40 - 40) =      9.39516  eV     1   --> A'             
     e( 41 - 41) =      9.43815  eV     1   --> A'             
     e( 42 - 42) =     10.26475  eV     1   --> A''            
     e( 43 - 43) =     10.31960  eV     1   --> A'             
     e( 44 - 44) =     10.36954  eV     1   --> A'             
     e( 45 - 45) =     11.83991  eV     1   --> A''            
     e( 46 - 46) =     11.84447  eV     1   --> A''            
     e( 47 - 47) =     11.86418  eV     1   --> A'             
     e( 48 - 48) =     12.39333  eV     1   --> A'             
     e( 49 - 49) =     12.40599  eV     1   --> A'             
     e( 50 - 50) =     12.53566  eV     1   --> A''            
     e( 51 - 51) =     12.53928  eV     1   --> A'             
     e( 52 - 52) =     12.54926  eV     1   --> A''            
     e( 53 - 53) =     12.56079  eV     1   --> A''            
     e( 54 - 54) =     12.56124  eV     1   --> A'             
     e( 55 - 55) =     12.56252  eV     1   --> A''            
     e( 56 - 56) =     12.82799  eV     1   --> A'             
     e( 57 - 57) =     13.56181  eV     1   --> A''            
     e( 58 - 58) =     14.45802  eV     1   --> A'             
     e( 59 - 59) =     14.46258  eV     1   --> A''            
     e( 60 - 60) =     14.47000  eV     1   --> A''            
     e( 61 - 61) =     16.00295  eV     1   --> A'             
     e( 62 - 62) =     16.05002  eV     1   --> A''            
     e( 63 - 63) =     16.09270  eV     1   --> A'             
     e( 64 - 64) =     16.23529  eV     1   --> A''            
     e( 65 - 65) =     16.27184  eV     1   --> A'             
     e( 66 - 66) =     16.28565  eV     1   --> A''            
     e( 67 - 67) =     16.75003  eV     1   --> A'             
     e( 68 - 68) =     16.81666  eV     1   --> A'             
     e( 69 - 69) =     19.78200  eV     1   --> A'             
     e( 70 - 70) =     19.83100  eV     1   --> A''            
     e( 71 - 71) =     19.93112  eV     1   --> A'             
     e( 72 - 72) =     21.28816  eV     1   --> A''            
     e( 73 - 73) =     21.30719  eV     1   --> A'             
     e( 74 - 74) =     21.42807  eV     1   --> A'             
     e( 75 - 75) =     21.43384  eV     1   --> A''            
     e( 76 - 76) =     21.60714  eV     1   --> A''            
     e( 77 - 77) =     21.62507  eV     1   --> A'             
     e( 78 - 78) =     21.93960  eV     1   --> A''            
     e( 79 - 79) =     22.05111  eV     1   --> A'             
     e( 80 - 80) =     22.08172  eV     1   --> A''            
     e( 81 - 81) =     22.33631  eV     1   --> A'             
     e( 82 - 82) =     22.40181  eV     1   --> A''            
     e( 83 - 83) =     22.45183  eV     1   --> A''            
     e( 84 - 84) =     23.61561  eV     1   -->   ?

 **************************************************************************

 **************************************************************************

                    xk=(   0.02500,   0.02500,   0.00000  )

     Band symmetry, C_s (m)     point group:

     e(  1 -  1) =    -73.35537  eV     1   --> A'             
     e(  2 -  4) =    -73.35503  eV     3   --> A'             
     e(  2 -  4) =    -73.35503  eV     3   -->   2 A''            
     e(  5 -  7) =    -39.53900  eV     3   -->   2 A'             
     e(  5 -  7) =    -39.53900  eV     3   --> A''            
     e(  8 -  9) =    -39.53722  eV     2   -->   2 A''            
     e( 10 - 12) =    -39.53645  eV     3   -->   2 A'             
     e( 10 - 12) =    -39.53645  eV     3   --> A''            
     e( 13 - 13) =    -39.28815  eV     1   --> A''            
     e( 14 - 16) =    -39.28750  eV     3   -->   2 A'             
     e( 14 - 16) =    -39.28750  eV     3   --> A''            
     e( 17 - 17) =     -4.11707  eV     1   --> A'             
     e( 18 - 19) =     -1.99880  eV     2   --> A'             
     e( 18 - 19) =     -1.99880  eV     2   --> A''            
     e( 20 - 20) =     -1.99291  eV     1   --> A''            
     e( 21 - 21) =      0.54730  eV     1   --> A'             
     e( 22 - 22) =      0.54999  eV     1   --> A''            
     e( 23 - 23) =      0.55130  eV     1   --> A'             
     e( 24 - 24) =      2.00166  eV     1   --> A''            
     e( 25 - 25) =      6.22167  eV     1   --> A''            
     e( 26 - 26) =      6.22301  eV     1   --> A'             
     e( 27 - 27) =      6.23143  eV     1   --> A''            
     e( 28 - 28) =      6.95700  eV     1   --> A'             
     e( 29 - 29) =      6.97332  eV     1   --> A''            
     e( 30 - 30) =      6.98313  eV     1   --> A'             
     e( 31 - 31) =      7.73454  eV     1   --> A''            
     e( 32 - 32) =      7.79432  eV     1   --> A''            
     e( 33 - 33) =      7.95876  eV     1   --> A'             
     e( 34 - 34) =      8.00300  eV     1   --> A'             
     e( 35 - 35) =      8.00596  eV     1   --> A''            
     e( 36 - 36) =      8.04804  eV     1   --> A''            
     e( 37 - 37) =      9.07672  eV     1   --> A''            
     e( 38 - 38) =      9.08559  eV     1   --> A'             
     e( 39 - 39) =      9.09008  eV     1   --> A''            
     e( 40 - 40) =      9.43546  eV     1   --> A'             
     e( 41 - 41) =      9.44731  eV     1   --> A'             
     e( 42 - 42) =     10.28134  eV     1   --> A''            
     e( 43 - 43) =     10.29632  eV     1   --> A'             
     e( 44 - 44) =     10.30917  eV     1   --> A'             
     e( 45 - 45) =     11.82928  eV     1   --> A''            
     e( 46 - 46) =     11.83041  eV     1   --> A''            
     e( 47 - 47) =     11.83554  eV     1   --> A'             
     e( 48 - 48) =     12.40481  eV     1   --> A'             
     e( 49 - 49) =     12.40801  eV     1   --> A'             
     e( 50 - 50) =     12.54556  eV     1   --> A''            
     e( 51 - 51) =     12.54618  eV     1   --> A'             
     e( 52 - 52) =     12.54869  eV     1   --> A''            
     e( 53 - 55) =     12.56117  eV     3   --> A'             
     e( 53 - 55) =     12.56117  eV     3   -->   2 A''            
     e( 56 - 56) =     12.82574  eV     1   --> A'             
     e( 57 - 57) =     13.51817  eV     1   --> A''            
     e( 58 - 58) =     14.46384  eV     1   --> A'             
     e( 59 - 59) =     14.46490  eV     1   --> A''            
     e( 60 - 60) =     14.46675  eV     1   --> A''            
     e( 61 - 61) =     16.07248  eV     1   --> A'             
     e( 62 - 62) =     16.08516  eV     1   --> A''            
     e( 63 - 63) =     16.09889  eV     1   --> A'             
     e( 64 - 64) =     16.24244  eV     1   --> A''            
     e( 65 - 65) =     16.25505  eV     1   --> A'             
     e( 66 - 66) =     16.25804  eV     1   --> A''            
     e( 67 - 67) =     16.82693  eV     1   --> A'             
     e( 68 - 68) =     16.84426  eV     1   --> A'             
     e( 69 - 69) =     19.80694  eV     1   --> A'             
     e( 70 - 70) =     19.82051  eV     1   --> A''            
     e( 71 - 71) =     19.84661  eV     1   --> A'             
     e( 72 - 72) =     21.20402  eV     1   --> A'             
     e( 73 - 73) =     21.52144  eV     1   --> A''            
     e( 74 - 74) =     21.55744  eV     1   --> A'             
     e( 75 - 75) =     21.58942  eV     1   --> A''            
     e( 76 - 76) =     21.62049  eV     1   --> A'             
     e( 77 - 77) =     21.63870  eV     1   --> A''            
     e( 78 - 78) =     21.97243  eV     1   --> A''            
     e( 79 - 79) =     21.99935  eV     1   --> A'             
     e( 80 - 80) =     22.02579  eV     1   --> A''            
     e( 81 - 81) =     22.36384  eV     1   --> A'             
     e( 82 - 82) =     22.36933  eV     1   --> A''            
     e( 83 - 83) =     22.40715  eV     1   --> A''            
     e( 84 - 84) =     23.65642  eV     1   -->   ?

 **************************************************************************

 **************************************************************************

                    xk=(   0.00000,   0.00000,   0.00000  )

     point group T_h (m-3)  
     there are  8 classes
     the character table:

       E     3C2   4C3   4C3'  i     3s_h  4S6^5 4S6  
A_g    1.00  1.00  1.00  1.00  1.00  1.00  1.00  1.00
E_g    1.00  1.00 -0.50 -0.50  1.00  1.00 -0.50 -0.50
E_g*   1.00  1.00 -0.50 -0.50  1.00  1.00 -0.50 -0.50
T_g    3.00 -1.00  0.00  0.00  3.00 -1.00  0.00  0.00
A_u    1.00  1.00  1.00  1.00 -1.00 -1.00 -1.00 -1.00
E_u    1.00  1.00 -0.50 -0.50 -1.00 -1.00  0.50  0.50
E_u*   1.00  1.00 -0.50 -0.50 -1.00 -1.00  0.50  0.50
T_u    3.00 -1.00  0.00  0.00 -3.00  1.00  0.00  0.00
     imaginary part
A_g    0.00  0.00  0.00  0.00  0.00  0.00  0.00  0.00
E_g    0.00  0.00  0.87 -0.87  0.00  0.00  0.87 -0.87
E_g*   0.00  0.00 -0.87  0.87  0.00  0.00 -0.87  0.87
T_g    0.00  0.00  0.00  0.00  0.00  0.00  0.00  0.00
A_u    0.00  0.00  0.00  0.00  0.00  0.00  0.00  0.00
E_u    0.00  0.00  0.87 -0.87  0.00  0.00 -0.87  0.87
E_u*   0.00  0.00 -0.87  0.87  0.00  0.00  0.87 -0.87
T_u    0.00  0.00  0.00  0.00  0.00  0.00  0.00  0.00

     the symmetry operations in each class and the name of the first element:

     E        1
                                                                 
     3C2      2    3    4
                                                                 
     4C3      9   12   10   11
                                                                 
     4C3'     5    7    8    6
                                                                 
     i       13
                                                                 
     3s_h    14   15   16
                                                                 
     4S6^5   21   24   22   23
                                                                 
     4S6     17   19   20   18
                                                                 

     Band symmetry, T_h (m-3)   point group:

     e(  1 -  1) =    -73.35544  eV     1   --> A_g            
     e(  2 -  4) =    -73.35503  eV     3   --> T_g            
     e(  5 -  7) =    -39.53901  eV     3   --> T_u            
     e(  8 -  9) =    -39.53722  eV     2   --> E_u            
     e(  8 -  9) =    -39.53722  eV     2   --> E_u*           
     e( 10 - 12) =    -39.53658  eV     3   --> T_u            
     e( 13 - 13) =    -39.28815  eV     1   --> A_u            
     e( 14 - 16) =    -39.28756  eV     3   --> T_u            
     e( 17 - 17) =     -4.12178  eV     1   --> A_g            
     e( 18 - 20) =     -1.99417  eV     3   --> T_g            
     e( 21 - 23) =      0.54695  eV     3   --> T_u            
     e( 24 - 24) =      2.01012  eV     1   --> A_u            
     e( 25 - 27) =      6.23432  eV     3   --> T_g            
     e( 28 - 30) =      6.97044  eV     3   --> T_u            
     e( 31 - 32) =      7.82531  eV     2   --> E_u            
     e( 31 - 32) =      7.82531  eV     2   --> E_u*           
     e( 33 - 35) =      7.94935  eV     3   --> T_g            
     e( 36 - 36) =      8.00601  eV     1   --> A_g            
     e( 37 - 39) =      9.08178  eV     3   --> T_g            
     e( 40 - 41) =      9.45128  eV     2   --> E_g            
     e( 40 - 41) =      9.45128  eV     2   --> E_g*           
     e( 42 - 44) =     10.28723  eV     3   --> T_u            
     e( 45 - 47) =     11.82565  eV     3   --> T_g            
     e( 48 - 49) =     12.40866  eV     2   --> E_g            
     e( 48 - 49) =     12.40866  eV     2   --> E_g*           
     e( 50 - 52) =     12.54822  eV     3   --> T_g            
     e( 53 - 55) =     12.56156  eV     3   --> T_g            
     e( 56 - 56) =     12.82501  eV     1   --> A_g            
     e( 57 - 57) =     13.50301  eV     1   --> A_u            
     e( 58 - 58) =     14.46571  eV     1   -->   ?
     e( 59 - 60) =     14.46583  eV     2   -->   ?
     e( 61 - 63) =     16.10073  eV     3   --> T_u            
     e( 64 - 65) =     16.24471  eV     2   -->   ?
     e( 66 - 66) =     16.24483  eV     1   -->   ?
     e( 67 - 68) =     16.85383  eV     2   --> E_g            
     e( 67 - 68) =     16.85383  eV     2   --> E_g*           
     e( 69 - 71) =     19.81661  eV     3   --> T_u            
     e( 72 - 72) =     21.16740  eV     1   --> A_g            
     e( 73 - 75) =     21.61904  eV     3   --> T_u            
     e( 76 - 77) =     21.67145  eV     2   --> E_u            
     e( 76 - 77) =     21.67145  eV     2   --> E_u*           
     e( 78 - 80) =     21.95545  eV     3   --> T_g            
     e( 81 - 83) =     22.38375  eV     3   --> T_g            
     e( 84 - 84) =     23.67113  eV     1   -->   ?

 **************************************************************************

     BANDS        :     49.46s CPU   1m 1.83s WALL


   This run was terminated on:  17:35:47  21Sep2023            

=------------------------------------------------------------------------------=
   JOB DONE.
=------------------------------------------------------------------------------=
