
     Program PWSCF v.7.1 starts on 22Sep2023 at 16:47: 7 

     This program is part of the open-source Quantum ESPRESSO suite
     for quantum simulation of materials; please cite
         "P. Giannozzi et al., J. Phys.:Condens. Matter 21 395502 (2009);
         "P. Giannozzi et al., J. Phys.:Condens. Matter 29 465901 (2017);
         "P. Giannozzi et al., J. Chem. Phys. 152 154105 (2020);
          URL http://www.quantum-espresso.org", 
     in publications or presentations arising from this work. More details at
     http://www.quantum-espresso.org/quote

     Parallel version (MPI & OpenMP), running on      10 processor cores
     Number of MPI processes:                10
     Threads/MPI process:                     1

     MPI processes distributed on     1 nodes
     11667 MiB available memory on the printing compute node when the environment starts

     Waiting for input...
     Reading input from standard input

     Current dimensions of program PWSCF are:
     Max number of different atomic species (ntypx) = 10
     Max number of k-points (npk) =  40000
     Max angular momentum in pseudopotentials (lmaxx) =  4

     Atomic positions and unit cell read from directory:
     ./work/pwscf.save/

     file Al.pbe-n-kjpaw_psl.1.0.0.UPF: wavefunction(s)  3S 3P renormalized
     file V.pbe-spn-kjpaw_psl.1.0.0.UPF: wavefunction(s)  3P 3D renormalized
     file Fe.pbe-spn-kjpaw_psl.1.0.0.UPF: wavefunction(s)  3P 3D renormalized
     Found identity + (  0.5000 -0.5000  0.0000) symmetry
     This is a supercell, fractional translations are disabled
     Message from routine setup:
     using ibrav=0 with symmetry is DISCOURAGED, use correct ibrav instead

     R & G space division:  proc/nbgrp/npool/nimage =      10
     Subspace diagonalization in iterative solution of the eigenvalue problem:
     a serial algorithm will be used


     Parallelization info
     --------------------
     sticks:   dense  smooth     PW     G-vecs:    dense   smooth      PW
     Min         594     261     74                34360    10129    1540
     Max         595     262     75                34363    10132    1543
     Sum        5949    2617    749               343611   101313   15419

     Using Slab Decomposition



     bravais-lattice index     =            0
     lattice parameter (alat)  =      10.7859  a.u.
     unit-cell volume          =    1254.7895 (a.u.)^3
     number of atoms/cell      =           16
     number of atomic types    =            3
     number of electrons       =       192.00
     number of Kohn-Sham states=          124
     kinetic-energy cutoff     =      71.0000  Ry
     charge density cutoff     =     641.0000  Ry
     Exchange-correlation= SLA  PW   PBX  PBC
                           (   1   4   3   4   0   0   0)

     celldm(1)=  10.785914  celldm(2)=   0.000000  celldm(3)=   0.000000
     celldm(4)=   0.000000  celldm(5)=   0.000000  celldm(6)=   0.000000

     crystal axes: (cart. coord. in units of alat)
               a(1) = (   1.000000   0.000000   0.000000 )  
               a(2) = (   0.000000   1.000000   0.000000 )  
               a(3) = (   0.000000   0.000000   1.000000 )  

     reciprocal axes: (cart. coord. in units 2 pi/alat)
               b(1) = (  1.000000  0.000000  0.000000 )  
               b(2) = (  0.000000  1.000000  0.000000 )  
               b(3) = (  0.000000  0.000000  1.000000 )  


     PseudoPot. # 1 for Al read from file:
     ./../../pseudo/psl100_PBE/Al.pbe-n-kjpaw_psl.1.0.0.UPF
     MD5 check sum: cdc280cbf52abc606c33c6b515783d65
     Pseudo is Projector augmented-wave + core cor, Zval =  3.0
     Generated using 'atomic' code by A. Dal Corso  v.7.2
     Shape of augmentation charge: PSQ
     Using radial grid of 1135 points,  6 beta functions with: 
                l(1) =   0
                l(2) =   0
                l(3) =   1
                l(4) =   1
                l(5) =   2
                l(6) =   2
     Q(r) pseudized with 0 coefficients 


     PseudoPot. # 2 for V  read from file:
     ./../../pseudo/psl100_PBE/V.pbe-spn-kjpaw_psl.1.0.0.UPF
     MD5 check sum: cba1cdff171fe0d1b5c7b7b536adf2ed
     Pseudo is Projector augmented-wave + core cor, Zval = 13.0
     Generated using 'atomic' code by A. Dal Corso  v.7.2
     Shape of augmentation charge: PSQ
     Using radial grid of 1181 points,  6 beta functions with: 
                l(1) =   0
                l(2) =   0
                l(3) =   1
                l(4) =   1
                l(5) =   2
                l(6) =   2
     Q(r) pseudized with 0 coefficients 


     PseudoPot. # 3 for Fe read from file:
     ./../../pseudo/psl100_PBE/Fe.pbe-spn-kjpaw_psl.1.0.0.UPF
     MD5 check sum: bcb9ab80563fcd4521c5f14da65cef4b
     Pseudo is Projector augmented-wave + core cor, Zval = 16.0
     Generated using 'atomic' code by A. Dal Corso  v.7.2
     Shape of augmentation charge: PSQ
     Using radial grid of 1191 points,  6 beta functions with: 
                l(1) =   0
                l(2) =   0
                l(3) =   1
                l(4) =   1
                l(5) =   2
                l(6) =   2
     Q(r) pseudized with 0 coefficients 


     atomic species   valence    mass     pseudopotential
        Al             3.00    26.98100     Al( 1.00)
        V             13.00    50.94150     V ( 1.00)
        Fe            16.00    55.84500     Fe( 1.00)

     48 Sym. Ops., with inversion, found


                                    s                        frac. trans.

      isym =  1     identity                                     

 cryst.   s( 1) = (     1          0          0      )
                  (     0          1          0      )
                  (     0          0          1      )

 cart.    s( 1) = (  1.0000000  0.0000000  0.0000000 )
                  (  0.0000000  1.0000000  0.0000000 )
                  (  0.0000000  0.0000000  1.0000000 )


      isym =  2     180 deg rotation - cart. axis [0,0,1]        

 cryst.   s( 2) = (    -1          0          0      )
                  (     0         -1          0      )
                  (     0          0          1      )

 cart.    s( 2) = ( -1.0000000  0.0000000  0.0000000 )
                  (  0.0000000 -1.0000000  0.0000000 )
                  (  0.0000000  0.0000000  1.0000000 )


      isym =  3     180 deg rotation - cart. axis [0,1,0]        

 cryst.   s( 3) = (    -1          0          0      )
                  (     0          1          0      )
                  (     0          0         -1      )

 cart.    s( 3) = ( -1.0000000  0.0000000  0.0000000 )
                  (  0.0000000  1.0000000  0.0000000 )
                  (  0.0000000  0.0000000 -1.0000000 )


      isym =  4     180 deg rotation - cart. axis [1,0,0]        

 cryst.   s( 4) = (     1          0          0      )
                  (     0         -1          0      )
                  (     0          0         -1      )

 cart.    s( 4) = (  1.0000000  0.0000000  0.0000000 )
                  (  0.0000000 -1.0000000  0.0000000 )
                  (  0.0000000  0.0000000 -1.0000000 )


      isym =  5     180 deg rotation - cart. axis [1,1,0]        

 cryst.   s( 5) = (     0          1          0      )
                  (     1          0          0      )
                  (     0          0         -1      )

 cart.    s( 5) = (  0.0000000  1.0000000  0.0000000 )
                  (  1.0000000  0.0000000  0.0000000 )
                  (  0.0000000  0.0000000 -1.0000000 )


      isym =  6     180 deg rotation - cart. axis [1,-1,0]       

 cryst.   s( 6) = (     0         -1          0      )
                  (    -1          0          0      )
                  (     0          0         -1      )

 cart.    s( 6) = (  0.0000000 -1.0000000  0.0000000 )
                  ( -1.0000000  0.0000000  0.0000000 )
                  (  0.0000000  0.0000000 -1.0000000 )


      isym =  7      90 deg rotation - cart. axis [0,0,-1]       

 cryst.   s( 7) = (     0         -1          0      )
                  (     1          0          0      )
                  (     0          0          1      )

 cart.    s( 7) = (  0.0000000  1.0000000  0.0000000 )
                  ( -1.0000000  0.0000000  0.0000000 )
                  (  0.0000000  0.0000000  1.0000000 )


      isym =  8      90 deg rotation - cart. axis [0,0,1]        

 cryst.   s( 8) = (     0          1          0      )
                  (    -1          0          0      )
                  (     0          0          1      )

 cart.    s( 8) = (  0.0000000 -1.0000000  0.0000000 )
                  (  1.0000000  0.0000000  0.0000000 )
                  (  0.0000000  0.0000000  1.0000000 )


      isym =  9     180 deg rotation - cart. axis [1,0,1]        

 cryst.   s( 9) = (     0          0          1      )
                  (     0         -1          0      )
                  (     1          0          0      )

 cart.    s( 9) = (  0.0000000  0.0000000  1.0000000 )
                  (  0.0000000 -1.0000000  0.0000000 )
                  (  1.0000000  0.0000000  0.0000000 )


      isym = 10     180 deg rotation - cart. axis [-1,0,1]       

 cryst.   s(10) = (     0          0         -1      )
                  (     0         -1          0      )
                  (    -1          0          0      )

 cart.    s(10) = (  0.0000000  0.0000000 -1.0000000 )
                  (  0.0000000 -1.0000000  0.0000000 )
                  ( -1.0000000  0.0000000  0.0000000 )


      isym = 11      90 deg rotation - cart. axis [0,1,0]        

 cryst.   s(11) = (     0          0         -1      )
                  (     0          1          0      )
                  (     1          0          0      )

 cart.    s(11) = (  0.0000000  0.0000000  1.0000000 )
                  (  0.0000000  1.0000000  0.0000000 )
                  ( -1.0000000  0.0000000  0.0000000 )


      isym = 12      90 deg rotation - cart. axis [0,-1,0]       

 cryst.   s(12) = (     0          0          1      )
                  (     0          1          0      )
                  (    -1          0          0      )

 cart.    s(12) = (  0.0000000  0.0000000 -1.0000000 )
                  (  0.0000000  1.0000000  0.0000000 )
                  (  1.0000000  0.0000000  0.0000000 )


      isym = 13     180 deg rotation - cart. axis [0,1,1]        

 cryst.   s(13) = (    -1          0          0      )
                  (     0          0          1      )
                  (     0          1          0      )

 cart.    s(13) = ( -1.0000000  0.0000000  0.0000000 )
                  (  0.0000000  0.0000000  1.0000000 )
                  (  0.0000000  1.0000000  0.0000000 )


      isym = 14     180 deg rotation - cart. axis [0,1,-1]       

 cryst.   s(14) = (    -1          0          0      )
                  (     0          0         -1      )
                  (     0         -1          0      )

 cart.    s(14) = ( -1.0000000  0.0000000  0.0000000 )
                  (  0.0000000  0.0000000 -1.0000000 )
                  (  0.0000000 -1.0000000  0.0000000 )


      isym = 15      90 deg rotation - cart. axis [-1,0,0]       

 cryst.   s(15) = (     1          0          0      )
                  (     0          0         -1      )
                  (     0          1          0      )

 cart.    s(15) = (  1.0000000  0.0000000  0.0000000 )
                  (  0.0000000  0.0000000  1.0000000 )
                  (  0.0000000 -1.0000000  0.0000000 )


      isym = 16      90 deg rotation - cart. axis [1,0,0]        

 cryst.   s(16) = (     1          0          0      )
                  (     0          0          1      )
                  (     0         -1          0      )

 cart.    s(16) = (  1.0000000  0.0000000  0.0000000 )
                  (  0.0000000  0.0000000 -1.0000000 )
                  (  0.0000000  1.0000000  0.0000000 )


      isym = 17     120 deg rotation - cart. axis [-1,-1,-1]     

 cryst.   s(17) = (     0          0          1      )
                  (     1          0          0      )
                  (     0          1          0      )

 cart.    s(17) = (  0.0000000  1.0000000  0.0000000 )
                  (  0.0000000  0.0000000  1.0000000 )
                  (  1.0000000  0.0000000  0.0000000 )


      isym = 18     120 deg rotation - cart. axis [-1,1,1]       

 cryst.   s(18) = (     0          0         -1      )
                  (    -1          0          0      )
                  (     0          1          0      )

 cart.    s(18) = (  0.0000000 -1.0000000  0.0000000 )
                  (  0.0000000  0.0000000  1.0000000 )
                  ( -1.0000000  0.0000000  0.0000000 )


      isym = 19     120 deg rotation - cart. axis [1,1,-1]       

 cryst.   s(19) = (     0          0         -1      )
                  (     1          0          0      )
                  (     0         -1          0      )

 cart.    s(19) = (  0.0000000  1.0000000  0.0000000 )
                  (  0.0000000  0.0000000 -1.0000000 )
                  ( -1.0000000  0.0000000  0.0000000 )


      isym = 20     120 deg rotation - cart. axis [1,-1,1]       

 cryst.   s(20) = (     0          0          1      )
                  (    -1          0          0      )
                  (     0         -1          0      )

 cart.    s(20) = (  0.0000000 -1.0000000  0.0000000 )
                  (  0.0000000  0.0000000 -1.0000000 )
                  (  1.0000000  0.0000000  0.0000000 )


      isym = 21     120 deg rotation - cart. axis [1,1,1]        

 cryst.   s(21) = (     0          1          0      )
                  (     0          0          1      )
                  (     1          0          0      )

 cart.    s(21) = (  0.0000000  0.0000000  1.0000000 )
                  (  1.0000000  0.0000000  0.0000000 )
                  (  0.0000000  1.0000000  0.0000000 )


      isym = 22     120 deg rotation - cart. axis [-1,1,-1]      

 cryst.   s(22) = (     0         -1          0      )
                  (     0          0         -1      )
                  (     1          0          0      )

 cart.    s(22) = (  0.0000000  0.0000000  1.0000000 )
                  ( -1.0000000  0.0000000  0.0000000 )
                  (  0.0000000 -1.0000000  0.0000000 )


      isym = 23     120 deg rotation - cart. axis [1,-1,-1]      

 cryst.   s(23) = (     0         -1          0      )
                  (     0          0          1      )
                  (    -1          0          0      )

 cart.    s(23) = (  0.0000000  0.0000000 -1.0000000 )
                  ( -1.0000000  0.0000000  0.0000000 )
                  (  0.0000000  1.0000000  0.0000000 )


      isym = 24     120 deg rotation - cart. axis [-1,-1,1]      

 cryst.   s(24) = (     0          1          0      )
                  (     0          0         -1      )
                  (    -1          0          0      )

 cart.    s(24) = (  0.0000000  0.0000000 -1.0000000 )
                  (  1.0000000  0.0000000  0.0000000 )
                  (  0.0000000 -1.0000000  0.0000000 )


      isym = 25     inversion                                    

 cryst.   s(25) = (    -1          0          0      )
                  (     0         -1          0      )
                  (     0          0         -1      )

 cart.    s(25) = ( -1.0000000  0.0000000  0.0000000 )
                  (  0.0000000 -1.0000000  0.0000000 )
                  (  0.0000000  0.0000000 -1.0000000 )


      isym = 26     inv. 180 deg rotation - cart. axis [0,0,1]   

 cryst.   s(26) = (     1          0          0      )
                  (     0          1          0      )
                  (     0          0         -1      )

 cart.    s(26) = (  1.0000000  0.0000000  0.0000000 )
                  (  0.0000000  1.0000000  0.0000000 )
                  (  0.0000000  0.0000000 -1.0000000 )


      isym = 27     inv. 180 deg rotation - cart. axis [0,1,0]   

 cryst.   s(27) = (     1          0          0      )
                  (     0         -1          0      )
                  (     0          0          1      )

 cart.    s(27) = (  1.0000000  0.0000000  0.0000000 )
                  (  0.0000000 -1.0000000  0.0000000 )
                  (  0.0000000  0.0000000  1.0000000 )


      isym = 28     inv. 180 deg rotation - cart. axis [1,0,0]   

 cryst.   s(28) = (    -1          0          0      )
                  (     0          1          0      )
                  (     0          0          1      )

 cart.    s(28) = ( -1.0000000  0.0000000  0.0000000 )
                  (  0.0000000  1.0000000  0.0000000 )
                  (  0.0000000  0.0000000  1.0000000 )


      isym = 29     inv. 180 deg rotation - cart. axis [1,1,0]   

 cryst.   s(29) = (     0         -1          0      )
                  (    -1          0          0      )
                  (     0          0          1      )

 cart.    s(29) = (  0.0000000 -1.0000000  0.0000000 )
                  ( -1.0000000  0.0000000  0.0000000 )
                  (  0.0000000  0.0000000  1.0000000 )


      isym = 30     inv. 180 deg rotation - cart. axis [1,-1,0]  

 cryst.   s(30) = (     0          1          0      )
                  (     1          0          0      )
                  (     0          0          1      )

 cart.    s(30) = (  0.0000000  1.0000000  0.0000000 )
                  (  1.0000000  0.0000000  0.0000000 )
                  (  0.0000000  0.0000000  1.0000000 )


      isym = 31     inv.  90 deg rotation - cart. axis [0,0,-1]  

 cryst.   s(31) = (     0          1          0      )
                  (    -1          0          0      )
                  (     0          0         -1      )

 cart.    s(31) = (  0.0000000 -1.0000000  0.0000000 )
                  (  1.0000000  0.0000000  0.0000000 )
                  (  0.0000000  0.0000000 -1.0000000 )


      isym = 32     inv.  90 deg rotation - cart. axis [0,0,1]   

 cryst.   s(32) = (     0         -1          0      )
                  (     1          0          0      )
                  (     0          0         -1      )

 cart.    s(32) = (  0.0000000  1.0000000  0.0000000 )
                  ( -1.0000000  0.0000000  0.0000000 )
                  (  0.0000000  0.0000000 -1.0000000 )


      isym = 33     inv. 180 deg rotation - cart. axis [1,0,1]   

 cryst.   s(33) = (     0          0         -1      )
                  (     0          1          0      )
                  (    -1          0          0      )

 cart.    s(33) = (  0.0000000  0.0000000 -1.0000000 )
                  (  0.0000000  1.0000000  0.0000000 )
                  ( -1.0000000  0.0000000  0.0000000 )


      isym = 34     inv. 180 deg rotation - cart. axis [-1,0,1]  

 cryst.   s(34) = (     0          0          1      )
                  (     0          1          0      )
                  (     1          0          0      )

 cart.    s(34) = (  0.0000000  0.0000000  1.0000000 )
                  (  0.0000000  1.0000000  0.0000000 )
                  (  1.0000000  0.0000000  0.0000000 )


      isym = 35     inv.  90 deg rotation - cart. axis [0,1,0]   

 cryst.   s(35) = (     0          0          1      )
                  (     0         -1          0      )
                  (    -1          0          0      )

 cart.    s(35) = (  0.0000000  0.0000000 -1.0000000 )
                  (  0.0000000 -1.0000000  0.0000000 )
                  (  1.0000000  0.0000000  0.0000000 )


      isym = 36     inv.  90 deg rotation - cart. axis [0,-1,0]  

 cryst.   s(36) = (     0          0         -1      )
                  (     0         -1          0      )
                  (     1          0          0      )

 cart.    s(36) = (  0.0000000  0.0000000  1.0000000 )
                  (  0.0000000 -1.0000000  0.0000000 )
                  ( -1.0000000  0.0000000  0.0000000 )


      isym = 37     inv. 180 deg rotation - cart. axis [0,1,1]   

 cryst.   s(37) = (     1          0          0      )
                  (     0          0         -1      )
                  (     0         -1          0      )

 cart.    s(37) = (  1.0000000  0.0000000  0.0000000 )
                  (  0.0000000  0.0000000 -1.0000000 )
                  (  0.0000000 -1.0000000  0.0000000 )


      isym = 38     inv. 180 deg rotation - cart. axis [0,1,-1]  

 cryst.   s(38) = (     1          0          0      )
                  (     0          0          1      )
                  (     0          1          0      )

 cart.    s(38) = (  1.0000000  0.0000000  0.0000000 )
                  (  0.0000000  0.0000000  1.0000000 )
                  (  0.0000000  1.0000000  0.0000000 )


      isym = 39     inv.  90 deg rotation - cart. axis [-1,0,0]  

 cryst.   s(39) = (    -1          0          0      )
                  (     0          0          1      )
                  (     0         -1          0      )

 cart.    s(39) = ( -1.0000000  0.0000000  0.0000000 )
                  (  0.0000000  0.0000000 -1.0000000 )
                  (  0.0000000  1.0000000  0.0000000 )


      isym = 40     inv.  90 deg rotation - cart. axis [1,0,0]   

 cryst.   s(40) = (    -1          0          0      )
                  (     0          0         -1      )
                  (     0          1          0      )

 cart.    s(40) = ( -1.0000000  0.0000000  0.0000000 )
                  (  0.0000000  0.0000000  1.0000000 )
                  (  0.0000000 -1.0000000  0.0000000 )


      isym = 41     inv. 120 deg rotation - cart. axis [-1,-1,-1]

 cryst.   s(41) = (     0          0         -1      )
                  (    -1          0          0      )
                  (     0         -1          0      )

 cart.    s(41) = (  0.0000000 -1.0000000  0.0000000 )
                  (  0.0000000  0.0000000 -1.0000000 )
                  ( -1.0000000  0.0000000  0.0000000 )


      isym = 42     inv. 120 deg rotation - cart. axis [-1,1,1]  

 cryst.   s(42) = (     0          0          1      )
                  (     1          0          0      )
                  (     0         -1          0      )

 cart.    s(42) = (  0.0000000  1.0000000  0.0000000 )
                  (  0.0000000  0.0000000 -1.0000000 )
                  (  1.0000000  0.0000000  0.0000000 )


      isym = 43     inv. 120 deg rotation - cart. axis [1,1,-1]  

 cryst.   s(43) = (     0          0          1      )
                  (    -1          0          0      )
                  (     0          1          0      )

 cart.    s(43) = (  0.0000000 -1.0000000  0.0000000 )
                  (  0.0000000  0.0000000  1.0000000 )
                  (  1.0000000  0.0000000  0.0000000 )


      isym = 44     inv. 120 deg rotation - cart. axis [1,-1,1]  

 cryst.   s(44) = (     0          0         -1      )
                  (     1          0          0      )
                  (     0          1          0      )

 cart.    s(44) = (  0.0000000  1.0000000  0.0000000 )
                  (  0.0000000  0.0000000  1.0000000 )
                  ( -1.0000000  0.0000000  0.0000000 )


      isym = 45     inv. 120 deg rotation - cart. axis [1,1,1]   

 cryst.   s(45) = (     0         -1          0      )
                  (     0          0         -1      )
                  (    -1          0          0      )

 cart.    s(45) = (  0.0000000  0.0000000 -1.0000000 )
                  ( -1.0000000  0.0000000  0.0000000 )
                  (  0.0000000 -1.0000000  0.0000000 )


      isym = 46     inv. 120 deg rotation - cart. axis [-1,1,-1] 

 cryst.   s(46) = (     0          1          0      )
                  (     0          0          1      )
                  (    -1          0          0      )

 cart.    s(46) = (  0.0000000  0.0000000 -1.0000000 )
                  (  1.0000000  0.0000000  0.0000000 )
                  (  0.0000000  1.0000000  0.0000000 )


      isym = 47     inv. 120 deg rotation - cart. axis [1,-1,-1] 

 cryst.   s(47) = (     0          1          0      )
                  (     0          0         -1      )
                  (     1          0          0      )

 cart.    s(47) = (  0.0000000  0.0000000  1.0000000 )
                  (  1.0000000  0.0000000  0.0000000 )
                  (  0.0000000 -1.0000000  0.0000000 )


      isym = 48     inv. 120 deg rotation - cart. axis [-1,-1,1] 

 cryst.   s(48) = (     0         -1          0      )
                  (     0          0          1      )
                  (     1          0          0      )

 cart.    s(48) = (  0.0000000  0.0000000  1.0000000 )
                  ( -1.0000000  0.0000000  0.0000000 )
                  (  0.0000000  1.0000000  0.0000000 )


   Cartesian axes

     site n.     atom                  positions (alat units)
         1           Fe  tau(   1) = (   0.2500000   0.7500000   0.7500000  )
         2           Fe  tau(   2) = (   0.7500000   0.2500000   0.2500000  )
         3           Fe  tau(   3) = (   0.7500000   0.2500000   0.7500000  )
         4           Fe  tau(   4) = (   0.2500000   0.7500000   0.2500000  )
         5           Fe  tau(   5) = (   0.7500000   0.7500000   0.2500000  )
         6           Fe  tau(   6) = (   0.2500000   0.2500000   0.7500000  )
         7           Fe  tau(   7) = (   0.2500000   0.2500000   0.2500000  )
         8           Fe  tau(   8) = (   0.7500000   0.7500000   0.7500000  )
         9           V   tau(   9) = (   0.5000000   0.0000000   0.0000000  )
        10           V   tau(  10) = (   0.0000000   0.5000000   0.0000000  )
        11           V   tau(  11) = (   0.0000000   0.0000000   0.5000000  )
        12           V   tau(  12) = (   0.5000000   0.5000000   0.5000000  )
        13           Al  tau(  13) = (   0.0000000   0.0000000   0.0000000  )
        14           Al  tau(  14) = (   0.0000000   0.5000000   0.5000000  )
        15           Al  tau(  15) = (   0.5000000   0.0000000   0.5000000  )
        16           Al  tau(  16) = (   0.5000000   0.5000000   0.0000000  )

   Crystallographic axes

     site n.     atom                  positions (cryst. coord.)
         1           Fe  tau(   1) = (  0.2500000  0.7500000  0.7500000  )
         2           Fe  tau(   2) = (  0.7500000  0.2500000  0.2500000  )
         3           Fe  tau(   3) = (  0.7500000  0.2500000  0.7500000  )
         4           Fe  tau(   4) = (  0.2500000  0.7500000  0.2500000  )
         5           Fe  tau(   5) = (  0.7500000  0.7500000  0.2500000  )
         6           Fe  tau(   6) = (  0.2500000  0.2500000  0.7500000  )
         7           Fe  tau(   7) = (  0.2500000  0.2500000  0.2500000  )
         8           Fe  tau(   8) = (  0.7500000  0.7500000  0.7500000  )
         9           V   tau(   9) = (  0.5000000  0.0000000  0.0000000  )
        10           V   tau(  10) = (  0.0000000  0.5000000  0.0000000  )
        11           V   tau(  11) = (  0.0000000  0.0000000  0.5000000  )
        12           V   tau(  12) = (  0.5000000  0.5000000  0.5000000  )
        13           Al  tau(  13) = (  0.0000000  0.0000000  0.0000000  )
        14           Al  tau(  14) = (  0.0000000  0.5000000  0.5000000  )
        15           Al  tau(  15) = (  0.5000000  0.0000000  0.5000000  )
        16           Al  tau(  16) = (  0.5000000  0.5000000  0.0000000  )

     number of k points=   101  Methfessel-Paxton smearing, width (Ry)=  0.0100
                       cart. coord. in units 2pi/alat
        k(    1) = (   0.5000000   0.2500000   0.7500000), wk =   0.0198020
        k(    2) = (   0.4750000   0.2625000   0.7125000), wk =   0.0198020
        k(    3) = (   0.4500000   0.2750000   0.6750000), wk =   0.0198020
        k(    4) = (   0.4250000   0.2875000   0.6375000), wk =   0.0198020
        k(    5) = (   0.4000000   0.3000000   0.6000000), wk =   0.0198020
        k(    6) = (   0.3750000   0.3125000   0.5625000), wk =   0.0198020
        k(    7) = (   0.3500000   0.3250000   0.5250000), wk =   0.0198020
        k(    8) = (   0.3250000   0.3375000   0.4875000), wk =   0.0198020
        k(    9) = (   0.3000000   0.3500000   0.4500000), wk =   0.0198020
        k(   10) = (   0.2750000   0.3625000   0.4125000), wk =   0.0198020
        k(   11) = (   0.2500000   0.3750000   0.3750000), wk =   0.0198020
        k(   12) = (   0.2250000   0.3875000   0.3375000), wk =   0.0198020
        k(   13) = (   0.2000000   0.4000000   0.3000000), wk =   0.0198020
        k(   14) = (   0.1750000   0.4125000   0.2625000), wk =   0.0198020
        k(   15) = (   0.1500000   0.4250000   0.2250000), wk =   0.0198020
        k(   16) = (   0.1250000   0.4375000   0.1875000), wk =   0.0198020
        k(   17) = (   0.1000000   0.4500000   0.1500000), wk =   0.0198020
        k(   18) = (   0.0750000   0.4625000   0.1125000), wk =   0.0198020
        k(   19) = (   0.0500000   0.4750000   0.0750000), wk =   0.0198020
        k(   20) = (   0.0250000   0.4875000   0.0375000), wk =   0.0198020
        k(   21) = (   0.0000000   0.5000000   0.0000000), wk =   0.0198020
        k(   22) = (   0.0000000   0.4750000   0.0000000), wk =   0.0198020
        k(   23) = (   0.0000000   0.4500000   0.0000000), wk =   0.0198020
        k(   24) = (   0.0000000   0.4250000   0.0000000), wk =   0.0198020
        k(   25) = (   0.0000000   0.4000000   0.0000000), wk =   0.0198020
        k(   26) = (   0.0000000   0.3750000   0.0000000), wk =   0.0198020
        k(   27) = (   0.0000000   0.3500000   0.0000000), wk =   0.0198020
        k(   28) = (   0.0000000   0.3250000   0.0000000), wk =   0.0198020
        k(   29) = (   0.0000000   0.3000000   0.0000000), wk =   0.0198020
        k(   30) = (   0.0000000   0.2750000   0.0000000), wk =   0.0198020
        k(   31) = (   0.0000000   0.2500000   0.0000000), wk =   0.0198020
        k(   32) = (   0.0000000   0.2250000   0.0000000), wk =   0.0198020
        k(   33) = (   0.0000000   0.2000000   0.0000000), wk =   0.0198020
        k(   34) = (   0.0000000   0.1750000   0.0000000), wk =   0.0198020
        k(   35) = (   0.0000000   0.1500000   0.0000000), wk =   0.0198020
        k(   36) = (   0.0000000   0.1250000   0.0000000), wk =   0.0198020
        k(   37) = (   0.0000000   0.1000000   0.0000000), wk =   0.0198020
        k(   38) = (   0.0000000   0.0750000   0.0000000), wk =   0.0198020
        k(   39) = (   0.0000000   0.0500000   0.0000000), wk =   0.0198020
        k(   40) = (   0.0000000   0.0250000   0.0000000), wk =   0.0198020
        k(   41) = (   0.0000000   0.0000000   0.0000000), wk =   0.0198020
        k(   42) = (   0.0000000   0.0250000   0.0250000), wk =   0.0198020
        k(   43) = (   0.0000000   0.0500000   0.0500000), wk =   0.0198020
        k(   44) = (   0.0000000   0.0750000   0.0750000), wk =   0.0198020
        k(   45) = (   0.0000000   0.1000000   0.1000000), wk =   0.0198020
        k(   46) = (   0.0000000   0.1250000   0.1250000), wk =   0.0198020
        k(   47) = (   0.0000000   0.1500000   0.1500000), wk =   0.0198020
        k(   48) = (   0.0000000   0.1750000   0.1750000), wk =   0.0198020
        k(   49) = (   0.0000000   0.2000000   0.2000000), wk =   0.0198020
        k(   50) = (   0.0000000   0.2250000   0.2250000), wk =   0.0198020
        k(   51) = (   0.0000000   0.2500000   0.2500000), wk =   0.0198020
        k(   52) = (   0.0000000   0.2750000   0.2750000), wk =   0.0198020
        k(   53) = (   0.0000000   0.3000000   0.3000000), wk =   0.0198020
        k(   54) = (   0.0000000   0.3250000   0.3250000), wk =   0.0198020
        k(   55) = (   0.0000000   0.3500000   0.3500000), wk =   0.0198020
        k(   56) = (   0.0000000   0.3750000   0.3750000), wk =   0.0198020
        k(   57) = (   0.0000000   0.4000000   0.4000000), wk =   0.0198020
        k(   58) = (   0.0000000   0.4250000   0.4250000), wk =   0.0198020
        k(   59) = (   0.0000000   0.4500000   0.4500000), wk =   0.0198020
        k(   60) = (   0.0000000   0.4750000   0.4750000), wk =   0.0198020
        k(   61) = (   0.0000000   0.5000000   0.5000000), wk =   0.0198020
        k(   62) = (   0.0375000   0.5000000   0.4875000), wk =   0.0198020
        k(   63) = (   0.0750000   0.5000000   0.4750000), wk =   0.0198020
        k(   64) = (   0.1125000   0.5000000   0.4625000), wk =   0.0198020
        k(   65) = (   0.1500000   0.5000000   0.4500000), wk =   0.0198020
        k(   66) = (   0.1875000   0.5000000   0.4375000), wk =   0.0198020
        k(   67) = (   0.2250000   0.5000000   0.4250000), wk =   0.0198020
        k(   68) = (   0.2625000   0.5000000   0.4125000), wk =   0.0198020
        k(   69) = (   0.3000000   0.5000000   0.4000000), wk =   0.0198020
        k(   70) = (   0.3375000   0.5000000   0.3875000), wk =   0.0198020
        k(   71) = (   0.3750000   0.5000000   0.3750000), wk =   0.0198020
        k(   72) = (   0.4125000   0.5000000   0.3625000), wk =   0.0198020
        k(   73) = (   0.4500000   0.5000000   0.3500000), wk =   0.0198020
        k(   74) = (   0.4875000   0.5000000   0.3375000), wk =   0.0198020
        k(   75) = (   0.5250000   0.5000000   0.3250000), wk =   0.0198020
        k(   76) = (   0.5625000   0.5000000   0.3125000), wk =   0.0198020
        k(   77) = (   0.6000000   0.5000000   0.3000000), wk =   0.0198020
        k(   78) = (   0.6375000   0.5000000   0.2875000), wk =   0.0198020
        k(   79) = (   0.6750000   0.5000000   0.2750000), wk =   0.0198020
        k(   80) = (   0.7125000   0.5000000   0.2625000), wk =   0.0198020
        k(   81) = (   0.7500000   0.5000000   0.2500000), wk =   0.0198020
        k(   82) = (   0.7500000   0.4937500   0.2562500), wk =   0.0198020
        k(   83) = (   0.7500000   0.4875000   0.2625000), wk =   0.0198020
        k(   84) = (   0.7500000   0.4812500   0.2687500), wk =   0.0198020
        k(   85) = (   0.7500000   0.4750000   0.2750000), wk =   0.0198020
        k(   86) = (   0.7500000   0.4687500   0.2812500), wk =   0.0198020
        k(   87) = (   0.7500000   0.4625000   0.2875000), wk =   0.0198020
        k(   88) = (   0.7500000   0.4562500   0.2937500), wk =   0.0198020
        k(   89) = (   0.7500000   0.4500000   0.3000000), wk =   0.0198020
        k(   90) = (   0.7500000   0.4437500   0.3062500), wk =   0.0198020
        k(   91) = (   0.7500000   0.4375000   0.3125000), wk =   0.0198020
        k(   92) = (   0.7500000   0.4312500   0.3187500), wk =   0.0198020
        k(   93) = (   0.7500000   0.4250000   0.3250000), wk =   0.0198020
        k(   94) = (   0.7500000   0.4187500   0.3312500), wk =   0.0198020
        k(   95) = (   0.7500000   0.4125000   0.3375000), wk =   0.0198020
        k(   96) = (   0.7500000   0.4062500   0.3437500), wk =   0.0198020
        k(   97) = (   0.7500000   0.4000000   0.3500000), wk =   0.0198020
        k(   98) = (   0.7500000   0.3937500   0.3562500), wk =   0.0198020
        k(   99) = (   0.7500000   0.3875000   0.3625000), wk =   0.0198020
        k(  100) = (   0.7500000   0.3812500   0.3687500), wk =   0.0198020
        k(  101) = (   0.7500000   0.3750000   0.3750000), wk =   0.0198020

                       cryst. coord.
        k(    1) = (   0.5000000   0.2500000   0.7500000), wk =   0.0198020
        k(    2) = (   0.4750000   0.2625000   0.7125000), wk =   0.0198020
        k(    3) = (   0.4500000   0.2750000   0.6750000), wk =   0.0198020
        k(    4) = (   0.4250000   0.2875000   0.6375000), wk =   0.0198020
        k(    5) = (   0.4000000   0.3000000   0.6000000), wk =   0.0198020
        k(    6) = (   0.3750000   0.3125000   0.5625000), wk =   0.0198020
        k(    7) = (   0.3500000   0.3250000   0.5250000), wk =   0.0198020
        k(    8) = (   0.3250000   0.3375000   0.4875000), wk =   0.0198020
        k(    9) = (   0.3000000   0.3500000   0.4500000), wk =   0.0198020
        k(   10) = (   0.2750000   0.3625000   0.4125000), wk =   0.0198020
        k(   11) = (   0.2500000   0.3750000   0.3750000), wk =   0.0198020
        k(   12) = (   0.2250000   0.3875000   0.3375000), wk =   0.0198020
        k(   13) = (   0.2000000   0.4000000   0.3000000), wk =   0.0198020
        k(   14) = (   0.1750000   0.4125000   0.2625000), wk =   0.0198020
        k(   15) = (   0.1500000   0.4250000   0.2250000), wk =   0.0198020
        k(   16) = (   0.1250000   0.4375000   0.1875000), wk =   0.0198020
        k(   17) = (   0.1000000   0.4500000   0.1500000), wk =   0.0198020
        k(   18) = (   0.0750000   0.4625000   0.1125000), wk =   0.0198020
        k(   19) = (   0.0500000   0.4750000   0.0750000), wk =   0.0198020
        k(   20) = (   0.0250000   0.4875000   0.0375000), wk =   0.0198020
        k(   21) = (   0.0000000   0.5000000   0.0000000), wk =   0.0198020
        k(   22) = (   0.0000000   0.4750000   0.0000000), wk =   0.0198020
        k(   23) = (   0.0000000   0.4500000   0.0000000), wk =   0.0198020
        k(   24) = (   0.0000000   0.4250000   0.0000000), wk =   0.0198020
        k(   25) = (   0.0000000   0.4000000   0.0000000), wk =   0.0198020
        k(   26) = (   0.0000000   0.3750000   0.0000000), wk =   0.0198020
        k(   27) = (   0.0000000   0.3500000   0.0000000), wk =   0.0198020
        k(   28) = (   0.0000000   0.3250000   0.0000000), wk =   0.0198020
        k(   29) = (   0.0000000   0.3000000   0.0000000), wk =   0.0198020
        k(   30) = (   0.0000000   0.2750000   0.0000000), wk =   0.0198020
        k(   31) = (   0.0000000   0.2500000   0.0000000), wk =   0.0198020
        k(   32) = (   0.0000000   0.2250000   0.0000000), wk =   0.0198020
        k(   33) = (   0.0000000   0.2000000   0.0000000), wk =   0.0198020
        k(   34) = (   0.0000000   0.1750000   0.0000000), wk =   0.0198020
        k(   35) = (   0.0000000   0.1500000   0.0000000), wk =   0.0198020
        k(   36) = (   0.0000000   0.1250000   0.0000000), wk =   0.0198020
        k(   37) = (   0.0000000   0.1000000   0.0000000), wk =   0.0198020
        k(   38) = (   0.0000000   0.0750000   0.0000000), wk =   0.0198020
        k(   39) = (   0.0000000   0.0500000   0.0000000), wk =   0.0198020
        k(   40) = (   0.0000000   0.0250000   0.0000000), wk =   0.0198020
        k(   41) = (   0.0000000   0.0000000   0.0000000), wk =   0.0198020
        k(   42) = (   0.0000000   0.0250000   0.0250000), wk =   0.0198020
        k(   43) = (   0.0000000   0.0500000   0.0500000), wk =   0.0198020
        k(   44) = (   0.0000000   0.0750000   0.0750000), wk =   0.0198020
        k(   45) = (   0.0000000   0.1000000   0.1000000), wk =   0.0198020
        k(   46) = (   0.0000000   0.1250000   0.1250000), wk =   0.0198020
        k(   47) = (   0.0000000   0.1500000   0.1500000), wk =   0.0198020
        k(   48) = (   0.0000000   0.1750000   0.1750000), wk =   0.0198020
        k(   49) = (   0.0000000   0.2000000   0.2000000), wk =   0.0198020
        k(   50) = (   0.0000000   0.2250000   0.2250000), wk =   0.0198020
        k(   51) = (   0.0000000   0.2500000   0.2500000), wk =   0.0198020
        k(   52) = (   0.0000000   0.2750000   0.2750000), wk =   0.0198020
        k(   53) = (   0.0000000   0.3000000   0.3000000), wk =   0.0198020
        k(   54) = (   0.0000000   0.3250000   0.3250000), wk =   0.0198020
        k(   55) = (   0.0000000   0.3500000   0.3500000), wk =   0.0198020
        k(   56) = (   0.0000000   0.3750000   0.3750000), wk =   0.0198020
        k(   57) = (   0.0000000   0.4000000   0.4000000), wk =   0.0198020
        k(   58) = (   0.0000000   0.4250000   0.4250000), wk =   0.0198020
        k(   59) = (   0.0000000   0.4500000   0.4500000), wk =   0.0198020
        k(   60) = (   0.0000000   0.4750000   0.4750000), wk =   0.0198020
        k(   61) = (   0.0000000   0.5000000   0.5000000), wk =   0.0198020
        k(   62) = (   0.0375000   0.5000000   0.4875000), wk =   0.0198020
        k(   63) = (   0.0750000   0.5000000   0.4750000), wk =   0.0198020
        k(   64) = (   0.1125000   0.5000000   0.4625000), wk =   0.0198020
        k(   65) = (   0.1500000   0.5000000   0.4500000), wk =   0.0198020
        k(   66) = (   0.1875000   0.5000000   0.4375000), wk =   0.0198020
        k(   67) = (   0.2250000   0.5000000   0.4250000), wk =   0.0198020
        k(   68) = (   0.2625000   0.5000000   0.4125000), wk =   0.0198020
        k(   69) = (   0.3000000   0.5000000   0.4000000), wk =   0.0198020
        k(   70) = (   0.3375000   0.5000000   0.3875000), wk =   0.0198020
        k(   71) = (   0.3750000   0.5000000   0.3750000), wk =   0.0198020
        k(   72) = (   0.4125000   0.5000000   0.3625000), wk =   0.0198020
        k(   73) = (   0.4500000   0.5000000   0.3500000), wk =   0.0198020
        k(   74) = (   0.4875000   0.5000000   0.3375000), wk =   0.0198020
        k(   75) = (   0.5250000   0.5000000   0.3250000), wk =   0.0198020
        k(   76) = (   0.5625000   0.5000000   0.3125000), wk =   0.0198020
        k(   77) = (   0.6000000   0.5000000   0.3000000), wk =   0.0198020
        k(   78) = (   0.6375000   0.5000000   0.2875000), wk =   0.0198020
        k(   79) = (   0.6750000   0.5000000   0.2750000), wk =   0.0198020
        k(   80) = (   0.7125000   0.5000000   0.2625000), wk =   0.0198020
        k(   81) = (   0.7500000   0.5000000   0.2500000), wk =   0.0198020
        k(   82) = (   0.7500000   0.4937500   0.2562500), wk =   0.0198020
        k(   83) = (   0.7500000   0.4875000   0.2625000), wk =   0.0198020
        k(   84) = (   0.7500000   0.4812500   0.2687500), wk =   0.0198020
        k(   85) = (   0.7500000   0.4750000   0.2750000), wk =   0.0198020
        k(   86) = (   0.7500000   0.4687500   0.2812500), wk =   0.0198020
        k(   87) = (   0.7500000   0.4625000   0.2875000), wk =   0.0198020
        k(   88) = (   0.7500000   0.4562500   0.2937500), wk =   0.0198020
        k(   89) = (   0.7500000   0.4500000   0.3000000), wk =   0.0198020
        k(   90) = (   0.7500000   0.4437500   0.3062500), wk =   0.0198020
        k(   91) = (   0.7500000   0.4375000   0.3125000), wk =   0.0198020
        k(   92) = (   0.7500000   0.4312500   0.3187500), wk =   0.0198020
        k(   93) = (   0.7500000   0.4250000   0.3250000), wk =   0.0198020
        k(   94) = (   0.7500000   0.4187500   0.3312500), wk =   0.0198020
        k(   95) = (   0.7500000   0.4125000   0.3375000), wk =   0.0198020
        k(   96) = (   0.7500000   0.4062500   0.3437500), wk =   0.0198020
        k(   97) = (   0.7500000   0.4000000   0.3500000), wk =   0.0198020
        k(   98) = (   0.7500000   0.3937500   0.3562500), wk =   0.0198020
        k(   99) = (   0.7500000   0.3875000   0.3625000), wk =   0.0198020
        k(  100) = (   0.7500000   0.3812500   0.3687500), wk =   0.0198020
        k(  101) = (   0.7500000   0.3750000   0.3750000), wk =   0.0198020

     Dense  grid:   343611 G-vectors     FFT dimensions: (  90,  90,  90)

     Smooth grid:   101313 G-vectors     FFT dimensions: (  60,  60,  60)

     Dynamical RAM for                 wfc:       2.40 MB

     Dynamical RAM for     wfc (w. buffer):     244.52 MB

     Dynamical RAM for           str. fact:       1.57 MB

     Dynamical RAM for           local pot:       0.00 MB

     Dynamical RAM for          nlocal pot:       5.57 MB

     Dynamical RAM for                qrad:       6.09 MB

     Dynamical RAM for          rho,v,vnew:       3.24 MB

     Dynamical RAM for           G-vectors:       2.04 MB

     Dynamical RAM for          h,s,v(r/c):       2.82 MB

     Dynamical RAM for          <psi|beta>:       0.54 MB

     Dynamical RAM for                 psi:       4.79 MB

     Dynamical RAM for                hpsi:       4.79 MB

     Dynamical RAM for                spsi:       4.79 MB

     Dynamical RAM for      wfcinit/wfcrot:       5.68 MB

     Dynamical RAM for           addusdens:     101.72 MB

     Estimated static dynamical RAM per process >     267.92 MB

     Estimated max dynamical RAM per process >     369.64 MB

     Estimated total dynamical RAM >       3.61 GB

     Check: negative core charge=   -0.000001

     The potential is recalculated from file :
     ./work/pwscf.save/charge-density

     Starting wfcs are  136 randomized atomic wfcs
     Checking if some PAW data can be deallocated... 
       PAW data deallocated on    6 nodes for type:  1
       PAW data deallocated on    8 nodes for type:  2
       PAW data deallocated on    6 nodes for type:  3

     Band Structure Calculation
     Davidson diagonalization with overlap

     Computing kpt #:     1  of   101
     total cpu time spent up to now is        4.2 secs

     Computing kpt #:     2  of   101
     total cpu time spent up to now is        6.4 secs

     Computing kpt #:     3  of   101
     total cpu time spent up to now is        9.1 secs

     Computing kpt #:     4  of   101
     total cpu time spent up to now is       11.8 secs

     Computing kpt #:     5  of   101
     total cpu time spent up to now is       14.6 secs

     Computing kpt #:     6  of   101
     total cpu time spent up to now is       17.4 secs

     Computing kpt #:     7  of   101
     total cpu time spent up to now is       20.1 secs

     Computing kpt #:     8  of   101
     total cpu time spent up to now is       22.8 secs

     Computing kpt #:     9  of   101
     total cpu time spent up to now is       25.5 secs

     Computing kpt #:    10  of   101
     total cpu time spent up to now is       28.2 secs

     Computing kpt #:    11  of   101
     total cpu time spent up to now is       31.0 secs

     Computing kpt #:    12  of   101
     total cpu time spent up to now is       33.7 secs

     Computing kpt #:    13  of   101
     total cpu time spent up to now is       36.1 secs

     Computing kpt #:    14  of   101
     total cpu time spent up to now is       38.5 secs

     Computing kpt #:    15  of   101
     total cpu time spent up to now is       40.9 secs

     Computing kpt #:    16  of   101
     total cpu time spent up to now is       43.2 secs

     Computing kpt #:    17  of   101
     total cpu time spent up to now is       45.5 secs

     Computing kpt #:    18  of   101
     total cpu time spent up to now is       47.7 secs

     Computing kpt #:    19  of   101
     total cpu time spent up to now is       50.0 secs

     Computing kpt #:    20  of   101
     total cpu time spent up to now is       52.2 secs

     Computing kpt #:    21  of   101
     total cpu time spent up to now is       54.3 secs

     Computing kpt #:    22  of   101
     total cpu time spent up to now is       56.5 secs

     Computing kpt #:    23  of   101
     total cpu time spent up to now is       58.6 secs

     Computing kpt #:    24  of   101
     total cpu time spent up to now is       60.8 secs

     Computing kpt #:    25  of   101
     total cpu time spent up to now is       63.0 secs

     Computing kpt #:    26  of   101
     total cpu time spent up to now is       65.1 secs

     Computing kpt #:    27  of   101
     total cpu time spent up to now is       67.3 secs

     Computing kpt #:    28  of   101
     total cpu time spent up to now is       69.4 secs

     Computing kpt #:    29  of   101
     total cpu time spent up to now is       71.5 secs

     Computing kpt #:    30  of   101
     total cpu time spent up to now is       73.6 secs

     Computing kpt #:    31  of   101
     total cpu time spent up to now is       75.8 secs

     Computing kpt #:    32  of   101
     total cpu time spent up to now is       78.0 secs

     Computing kpt #:    33  of   101
     total cpu time spent up to now is       80.5 secs

     Computing kpt #:    34  of   101
     total cpu time spent up to now is       82.7 secs

     Computing kpt #:    35  of   101
     total cpu time spent up to now is       85.2 secs

     Computing kpt #:    36  of   101
     total cpu time spent up to now is       87.4 secs

     Computing kpt #:    37  of   101
     total cpu time spent up to now is       89.9 secs

     Computing kpt #:    38  of   101
     total cpu time spent up to now is       92.3 secs

     Computing kpt #:    39  of   101
     total cpu time spent up to now is       94.8 secs

     Computing kpt #:    40  of   101
     total cpu time spent up to now is       96.7 secs

     Computing kpt #:    41  of   101
     total cpu time spent up to now is       98.6 secs

     Computing kpt #:    42  of   101
     total cpu time spent up to now is      100.7 secs

     Computing kpt #:    43  of   101
     total cpu time spent up to now is      102.8 secs

     Computing kpt #:    44  of   101
     total cpu time spent up to now is      104.9 secs

     Computing kpt #:    45  of   101
     total cpu time spent up to now is      107.2 secs

     Computing kpt #:    46  of   101
     total cpu time spent up to now is      109.4 secs

     Computing kpt #:    47  of   101
     total cpu time spent up to now is      111.7 secs

     Computing kpt #:    48  of   101
     total cpu time spent up to now is      113.9 secs

     Computing kpt #:    49  of   101
     total cpu time spent up to now is      116.1 secs

     Computing kpt #:    50  of   101
     total cpu time spent up to now is      118.3 secs

     Computing kpt #:    51  of   101
     total cpu time spent up to now is      120.5 secs

     Computing kpt #:    52  of   101
     total cpu time spent up to now is      122.7 secs

     Computing kpt #:    53  of   101
     total cpu time spent up to now is      125.4 secs

     Computing kpt #:    54  of   101
     total cpu time spent up to now is      127.6 secs

     Computing kpt #:    55  of   101
     total cpu time spent up to now is      129.7 secs

     Computing kpt #:    56  of   101
     total cpu time spent up to now is      131.9 secs

     Computing kpt #:    57  of   101
     total cpu time spent up to now is      134.0 secs

     Computing kpt #:    58  of   101
     total cpu time spent up to now is      136.2 secs

     Computing kpt #:    59  of   101
     total cpu time spent up to now is      138.3 secs

     Computing kpt #:    60  of   101
     total cpu time spent up to now is      140.4 secs

     Computing kpt #:    61  of   101
     total cpu time spent up to now is      142.5 secs

     Computing kpt #:    62  of   101
     total cpu time spent up to now is      144.7 secs

     Computing kpt #:    63  of   101
     total cpu time spent up to now is      146.8 secs

     Computing kpt #:    64  of   101
     total cpu time spent up to now is      149.0 secs

     Computing kpt #:    65  of   101
     total cpu time spent up to now is      151.2 secs

     Computing kpt #:    66  of   101
     total cpu time spent up to now is      153.4 secs

     Computing kpt #:    67  of   101
     total cpu time spent up to now is      155.6 secs

     Computing kpt #:    68  of   101
     total cpu time spent up to now is      157.9 secs

     Computing kpt #:    69  of   101
     total cpu time spent up to now is      160.5 secs

     Computing kpt #:    70  of   101
     total cpu time spent up to now is      163.3 secs

     Computing kpt #:    71  of   101
     total cpu time spent up to now is      166.0 secs

     Computing kpt #:    72  of   101
     total cpu time spent up to now is      168.7 secs

     Computing kpt #:    73  of   101
     total cpu time spent up to now is      171.3 secs

     Computing kpt #:    74  of   101
     total cpu time spent up to now is      173.6 secs

     Computing kpt #:    75  of   101
     total cpu time spent up to now is      175.9 secs

     Computing kpt #:    76  of   101
     total cpu time spent up to now is      178.1 secs

     Computing kpt #:    77  of   101
     total cpu time spent up to now is      180.7 secs

     Computing kpt #:    78  of   101
     total cpu time spent up to now is      183.3 secs

     Computing kpt #:    79  of   101
     total cpu time spent up to now is      185.6 secs

     Computing kpt #:    80  of   101
     total cpu time spent up to now is      187.9 secs

     Computing kpt #:    81  of   101
     total cpu time spent up to now is      190.2 secs

     Computing kpt #:    82  of   101
     total cpu time spent up to now is      192.5 secs

     Computing kpt #:    83  of   101
     total cpu time spent up to now is      194.7 secs

     Computing kpt #:    84  of   101
     total cpu time spent up to now is      197.0 secs

     Computing kpt #:    85  of   101
     total cpu time spent up to now is      199.3 secs

     Computing kpt #:    86  of   101
     total cpu time spent up to now is      202.0 secs

     Computing kpt #:    87  of   101
     total cpu time spent up to now is      204.9 secs

     Computing kpt #:    88  of   101
     total cpu time spent up to now is      207.7 secs

     Computing kpt #:    89  of   101
     total cpu time spent up to now is      210.6 secs

     Computing kpt #:    90  of   101
     total cpu time spent up to now is      213.5 secs

     Computing kpt #:    91  of   101
     total cpu time spent up to now is      216.4 secs

     Computing kpt #:    92  of   101
     total cpu time spent up to now is      219.3 secs

     Computing kpt #:    93  of   101
     total cpu time spent up to now is      222.3 secs

     Computing kpt #:    94  of   101
     total cpu time spent up to now is      225.1 secs

     Computing kpt #:    95  of   101
     total cpu time spent up to now is      228.0 secs

     Computing kpt #:    96  of   101
     total cpu time spent up to now is      230.8 secs

     Computing kpt #:    97  of   101
     total cpu time spent up to now is      233.6 secs

     Computing kpt #:    98  of   101
     total cpu time spent up to now is      236.6 secs

     Computing kpt #:    99  of   101
     total cpu time spent up to now is      239.4 secs

     Computing kpt #:   100  of   101
     total cpu time spent up to now is      242.3 secs

     Computing kpt #:   101  of   101
     total cpu time spent up to now is      245.2 secs

     ethr =  6.25E-07,  avg # of iterations = 19.6

     total cpu time spent up to now is      245.2 secs

     End of band structure calculation

          k = 0.5000 0.2500 0.7500 ( 12632 PWs)   bands (ev):

   -69.8217 -69.8217 -69.8181 -69.8181 -69.8181 -69.8181 -69.8143 -69.8143
   -47.8902 -47.8901 -47.8899 -47.8315 -35.9408 -35.9406 -35.9367 -35.9365
   -35.9349 -35.9348 -35.9344 -35.9344 -35.9169 -35.9168 -35.9144 -35.9144
   -35.9132 -35.9131 -35.9085 -35.9085 -35.8922 -35.8922 -35.8919 -35.8919
   -35.8882 -35.8881 -35.8879 -35.8877 -21.7265 -21.7243 -21.7227 -21.7226
   -21.7213 -21.7191 -21.7189 -21.7180 -21.7174 -21.6641 -21.6641 -21.6640
     8.9198   8.9284  10.2791  10.2879  11.4847  11.4913  12.3233  12.3283
    12.8322  12.8386  13.2432  13.2532  13.5711  13.5798  13.7024  13.7087
    14.1080  14.1085  14.2509  14.2575  14.4381  14.4410  14.6602  14.6630
    14.6997  14.7093  14.7293  14.7318  14.9412  14.9501  15.2231  15.2280
    15.3347  15.3364  15.4784  15.4802  15.5944  15.5950  15.6477  15.6488
    15.9190  15.9205  15.9298  15.9304  16.0745  16.0745  16.3184  16.3193
    17.4635  17.4646  17.5495  17.5590  17.6249  17.6313  17.7389  17.7455
    17.8427  17.8478  17.8640  17.8857  17.9609  17.9661  18.0388  18.0526
    18.3640  18.3711  19.1812  19.1866  19.6462  19.6552  19.7715  19.7741
    20.9742  20.9761  21.2781  21.2794

          k = 0.4750 0.2625 0.7125 ( 12652 PWs)   bands (ev):

   -69.8217 -69.8212 -69.8184 -69.8181 -69.8180 -69.8177 -69.8149 -69.8145
   -47.8902 -47.8901 -47.8899 -47.8315 -35.9387 -35.9385 -35.9346 -35.9344
   -35.9343 -35.9337 -35.9322 -35.9316 -35.9191 -35.9166 -35.9162 -35.9144
   -35.9115 -35.9111 -35.9108 -35.9066 -35.8953 -35.8947 -35.8931 -35.8926
   -35.8912 -35.8908 -35.8893 -35.8889 -21.7268 -21.7243 -21.7230 -21.7229
   -21.7208 -21.7190 -21.7188 -21.7180 -21.7174 -21.6641 -21.6641 -21.6640
     8.9351   9.1375  10.2199  10.2453  11.4063  11.4252  12.1544  12.3128
    12.9166  12.9249  13.1899  13.2347  13.5047  13.5755  13.6490  13.6555
    14.1713  14.1727  14.2792  14.3205  14.4607  14.4788  14.6378  14.6539
    14.6838  14.6961  14.7189  14.7520  14.9378  14.9688  15.1777  15.2402
    15.3221  15.3472  15.4048  15.4224  15.6142  15.6172  15.6585  15.6594
    15.8500  15.8718  15.9154  15.9428  16.0432  16.0517  16.2612  16.2725
    17.4776  17.4923  17.5555  17.5647  17.6253  17.6323  17.7198  17.7283
    17.8749  17.8854  17.8956  17.9203  17.9857  17.9919  18.0454  18.0655
    18.3766  18.3849  18.9644  19.1357  19.8610  19.8983  20.0233  20.0426
    20.9124  21.1688  21.2271  21.6082

          k = 0.4500 0.2750 0.6750 ( 12676 PWs)   bands (ev):

   -69.8216 -69.8207 -69.8188 -69.8181 -69.8180 -69.8173 -69.8154 -69.8146
   -47.8902 -47.8901 -47.8899 -47.8315 -35.9371 -35.9366 -35.9340 -35.9328
   -35.9320 -35.9317 -35.9295 -35.9283 -35.9214 -35.9192 -35.9186 -35.9149
   -35.9114 -35.9087 -35.9079 -35.9045 -35.8986 -35.8977 -35.8947 -35.8941
   -35.8938 -35.8932 -35.8908 -35.8899 -21.7271 -21.7243 -21.7233 -21.7232
   -21.7203 -21.7191 -21.7185 -21.7180 -21.7174 -21.6642 -21.6641 -21.6640
     8.9641   9.3586  10.1133  10.2122  11.3391  11.4156  11.9578  12.2709
    12.9888  13.0064  13.1569  13.2427  13.4437  13.5686  13.6037  13.6101
    14.2317  14.2356  14.3057  14.3784  14.4910  14.5167  14.6030  14.6145
    14.6550  14.7079  14.7164  14.7777  14.9325  15.0122  15.1405  15.2581
    15.2608  15.3348  15.3495  15.3887  15.6338  15.6427  15.6730  15.6779
    15.7850  15.8220  15.9086  15.9555  16.0120  16.0457  16.2012  16.2142
    17.4922  17.5182  17.5507  17.5672  17.6239  17.6415  17.6966  17.7091
    17.9029  17.9074  17.9239  17.9658  18.0086  18.0238  18.0481  18.0793
    18.3847  18.4136  18.7807  19.0822  20.0351  20.1602  20.2879  20.3310
    20.8460  21.0594  21.4501  21.9419

          k = 0.4250 0.2875 0.6375 ( 12674 PWs)   bands (ev):

   -69.8214 -69.8202 -69.8192 -69.8181 -69.8180 -69.8169 -69.8160 -69.8148
   -47.8902 -47.8901 -47.8899 -47.8315 -35.9358 -35.9349 -35.9336 -35.9319
   -35.9290 -35.9284 -35.9267 -35.9246 -35.9234 -35.9219 -35.9208 -35.9178
   -35.9088 -35.9063 -35.9053 -35.9025 -35.9020 -35.9007 -35.8984 -35.8970
   -35.8949 -35.8937 -35.8924 -35.8910 -21.7273 -21.7243 -21.7235 -21.7234
   -21.7199 -21.7191 -21.7182 -21.7180 -21.7174 -21.6641 -21.6640 -21.6640
     9.0107   9.5825   9.9688  10.1869  11.2864  11.4589  11.7493  12.2057
    13.0464  13.0777  13.1412  13.2683  13.3949  13.5563  13.5681  13.5740
    14.2855  14.2929  14.3280  14.4222  14.5235  14.5537  14.5700  14.5951
    14.6234  14.7057  14.7140  14.7905  14.9288  15.0702  15.1168  15.1934
    15.2777  15.2852  15.3387  15.3474  15.6530  15.6693  15.6828  15.7047
    15.7336  15.7770  15.8998  15.9631  15.9850  16.0554  16.1456  16.1464
    17.5092  17.5392  17.5397  17.5705  17.6212  17.6545  17.6746  17.6886
    17.9224  17.9333  17.9487  18.0001  18.0295  18.0452  18.0525  18.0903
    18.3911  18.4601  18.6342  19.0243  20.1886  20.4331  20.5634  20.5850
    20.7776  20.9524  21.6195  22.2623

          k = 0.4000 0.3000 0.6000 ( 12688 PWs)   bands (ev):

   -69.8213 -69.8196 -69.8196 -69.8181 -69.8180 -69.8166 -69.8166 -69.8149
   -47.8901 -47.8901 -47.8899 -47.8315 -35.9347 -35.9332 -35.9332 -35.9309
   -35.9260 -35.9258 -35.9254 -35.9236 -35.9229 -35.9227 -35.9214 -35.9204
   -35.9067 -35.9051 -35.9041 -35.9039 -35.9029 -35.9020 -35.9006 -35.9004
   -35.8959 -35.8941 -35.8941 -35.8922 -21.7275 -21.7243 -21.7236 -21.7236
   -21.7197 -21.7191 -21.7181 -21.7181 -21.7174 -21.6641 -21.6640 -21.6640
     9.0743   9.7975   9.8029  10.1693  11.2494  11.5422  11.5469  12.1260
    13.0880  13.1335  13.1363  13.2921  13.3695  13.5406  13.5418  13.5479
    14.3253  14.3408  14.3438  14.4488  14.5438  14.5590  14.5853  14.5899
    14.5946  14.6977  14.7064  14.7825  14.9357  15.1068  15.1332  15.1343
    15.2555  15.2949  15.2974  15.3276  15.6671  15.6873  15.6989  15.6993
    15.7376  15.7377  15.8873  15.9547  15.9661  16.0743  16.0744  16.1079
    17.5278  17.5306  17.5509  17.5740  17.6186  17.6580  17.6663  17.6683
    17.9409  17.9536  17.9689  18.0186  18.0470  18.0475  18.0626  18.0970
    18.3974  18.5232  18.5272  18.9624  20.3242  20.7087  20.7093  20.7491
    20.8492  20.8504  21.7038  22.4545

          k = 0.3750 0.3125 0.5625 ( 12681 PWs)   bands (ev):

   -69.8211 -69.8200 -69.8190 -69.8181 -69.8180 -69.8171 -69.8161 -69.8151
   -47.8901 -47.8901 -47.8900 -47.8315 -35.9335 -35.9327 -35.9315 -35.9301
   -35.9277 -35.9270 -35.9254 -35.9239 -35.9220 -35.9204 -35.9196 -35.9170
   -35.9097 -35.9075 -35.9065 -35.9040 -35.9030 -35.9018 -35.8997 -35.8986
   -35.8969 -35.8957 -35.8946 -35.8934 -21.7276 -21.7244 -21.7237 -21.7236
   -21.7196 -21.7189 -21.7182 -21.7180 -21.7174 -21.6641 -21.6640 -21.6640
     9.1541   9.6204   9.9939  10.1597  11.2289  11.3657  11.6615  12.0405
    13.1118  13.1306  13.1779  13.2804  13.3926  13.5179  13.5280  13.5339
    14.3429  14.3468  14.3820  14.4559  14.5422  14.5594  14.5797  14.6020
    14.6233  14.6850  14.6937  14.7517  14.9595  15.0838  15.1112  15.1950
    15.2410  15.2479  15.3103  15.3190  15.6740  15.6821  15.6869  15.7058
    15.7388  15.7734  15.8703  15.9201  15.9574  16.0091  16.0953  16.1000
    17.5237  17.5488  17.5514  17.5776  17.6166  17.6434  17.6584  17.6739
    17.9573  17.9669  17.9822  18.0216  18.0463  18.0567  18.0658  18.0982
    18.4032  18.4526  18.6083  18.8972  20.4389  20.6416  20.7536  20.7816
    20.9768  21.1462  21.6735  22.2315

          k = 0.3500 0.3250 0.5250 ( 12668 PWs)   bands (ev):

   -69.8208 -69.8204 -69.8184 -69.8181 -69.8180 -69.8177 -69.8158 -69.8153
   -47.8901 -47.8901 -47.8900 -47.8315 -35.9327 -35.9324 -35.9298 -35.9292
   -35.9291 -35.9290 -35.9274 -35.9267 -35.9185 -35.9165 -35.9161 -35.9141
   -35.9123 -35.9109 -35.9105 -35.9077 -35.9003 -35.8998 -35.8978 -35.8973
   -35.8970 -35.8967 -35.8950 -35.8946 -21.7276 -21.7244 -21.7237 -21.7236
   -21.7197 -21.7188 -21.7183 -21.7179 -21.7174 -21.6641 -21.6640 -21.6640
     9.2489   9.4388  10.1281  10.1585  11.2248  11.2503  11.8010  11.9562
    13.1150  13.1232  13.2096  13.2507  13.4379  13.4919  13.5243  13.5310
    14.3397  14.3417  14.4102  14.4427  14.5293  14.5370  14.6236  14.6305
    14.6514  14.6657  14.6776  14.7042  14.9926  15.0410  15.1335  15.1891
    15.2450  15.2555  15.3164  15.3168  15.6744  15.6758  15.6831  15.6854
    15.7905  15.8107  15.8483  15.8703  15.9581  15.9674  16.1120  16.1138
    17.5242  17.5369  17.5717  17.5810  17.6157  17.6233  17.6664  17.6767
    17.9666  17.9713  17.9896  18.0123  18.0429  18.0478  18.0749  18.0942
    18.4062  18.4140  18.7082  18.8295  20.5216  20.5743  20.6685  20.6952
    21.2219  21.4499  21.5204  21.8925

          k = 0.3250 0.3375 0.4875 ( 12671 PWs)   bands (ev):

   -69.8208 -69.8206 -69.8182 -69.8181 -69.8181 -69.8179 -69.8155 -69.8153
   -47.8901 -47.8901 -47.8900 -47.8315 -35.9331 -35.9329 -35.9300 -35.9299
   -35.9295 -35.9292 -35.9283 -35.9279 -35.9173 -35.9153 -35.9151 -35.9150
   -35.9120 -35.9118 -35.9113 -35.9088 -35.8990 -35.8987 -35.8978 -35.8975
   -35.8959 -35.8957 -35.8948 -35.8946 -21.7275 -21.7244 -21.7236 -21.7235
   -21.7198 -21.7188 -21.7183 -21.7179 -21.7174 -21.6641 -21.6640 -21.6640
     9.2615   9.3576  10.1549  10.1662  11.2369  11.2463  11.8782  11.9565
    13.0992  13.1069  13.2143  13.2361  13.4577  13.4868  13.5332  13.5400
    14.3244  14.3263  14.4074  14.4249  14.5219  14.5283  14.6386  14.6474
    14.6595  14.6625  14.6739  14.6894  14.9990  15.0227  15.1486  15.1772
    15.2650  15.2682  15.3220  15.3227  15.6697  15.6701  15.6789  15.6794
    15.8130  15.8275  15.8430  15.8577  15.9657  15.9681  16.1286  16.1303
    17.5228  17.5295  17.5745  17.5819  17.6160  17.6203  17.6732  17.6809
    17.9605  17.9650  17.9839  18.0019  18.0374  18.0408  18.0748  18.0905
    18.4039  18.4063  18.7603  18.8237  20.4877  20.5049  20.5991  20.6091
    21.2732  21.4247  21.5326  21.7547

          k = 0.3000 0.3500 0.4500 ( 12675 PWs)   bands (ev):

   -69.8212 -69.8204 -69.8188 -69.8181 -69.8180 -69.8173 -69.8158 -69.8150
   -47.8902 -47.8901 -47.8899 -47.8315 -35.9348 -35.9342 -35.9322 -35.9311
   -35.9297 -35.9294 -35.9275 -35.9262 -35.9211 -35.9192 -35.9185 -35.9154
   -35.9111 -35.9087 -35.9079 -35.9049 -35.9006 -35.8997 -35.8972 -35.8962
   -35.8959 -35.8949 -35.8931 -35.8922 -21.7274 -21.7243 -21.7235 -21.7235
   -21.7199 -21.7190 -21.7183 -21.7180 -21.7174 -21.6641 -21.6640 -21.6640
     9.0937   9.4776  10.0725  10.1786  11.2684  11.3545  11.8114  12.1208
    13.0668  13.0818  13.1720  13.2560  13.4204  13.5324  13.5551  13.5613
    14.2991  14.3020  14.3576  14.4234  14.5203  14.5375  14.5959  14.6122
    14.6412  14.6905  14.6994  14.7532  14.9545  15.0475  15.1253  15.2348
    15.2371  15.2818  15.3336  15.3426  15.6589  15.6654  15.6792  15.6882
    15.7653  15.7989  15.8807  15.9243  15.9788  16.0134  16.1430  16.1479
    17.5113  17.5354  17.5559  17.5749  17.6198  17.6393  17.6746  17.6891
    17.9379  17.9453  17.9604  17.9991  18.0313  18.0425  18.0606  18.0905
    18.3965  18.4271  18.6915  18.9531  20.2935  20.4329  20.5471  20.5900
    20.9725  21.1707  21.5599  22.0534

          k = 0.2750 0.3625 0.4125 ( 12671 PWs)   bands (ev):

   -69.8216 -69.8201 -69.8193 -69.8181 -69.8180 -69.8168 -69.8160 -69.8146
   -47.8902 -47.8901 -47.8899 -47.8315 -35.9369 -35.9358 -35.9348 -35.9327
   -35.9292 -35.9284 -35.9268 -35.9245 -35.9244 -35.9231 -35.9219 -35.9190
   -35.9077 -35.9051 -35.9039 -35.9022 -35.9012 -35.9007 -35.8985 -35.8968
   -35.8941 -35.8924 -35.8915 -35.8898 -21.7272 -21.7242 -21.7234 -21.7233
   -21.7200 -21.7192 -21.7183 -21.7181 -21.7174 -21.6642 -21.6640 -21.6640
     8.9378   9.6070   9.9213  10.2002  11.3148  11.5293  11.7585  12.2869
    13.0144  13.0597  13.1179  13.2664  13.3906  13.5780  13.5875  13.5940
    14.2597  14.2716  14.2998  14.4095  14.5171  14.5573  14.5620  14.5876
    14.6173  14.7179  14.7264  14.8161  14.9108  15.0721  15.1176  15.1742
    15.3002  15.3043  15.3442  15.3613  15.6430  15.6680  15.6847  15.7124
    15.7221  15.7717  15.9163  15.9900  15.9967  16.0871  16.1617  16.1624
    17.5041  17.5295  17.5360  17.5655  17.6229  17.6625  17.6809  17.6920
    17.9052  17.9171  17.9334  17.9925  18.0229  18.0375  18.0497  18.0868
    18.3848  18.4779  18.6244  19.0951  20.0711  20.3659  20.5055  20.5104
    20.6451  20.8178  21.6119  22.3390

          k = 0.2500 0.3750 0.3750 ( 12680 PWs)   bands (ev):

   -69.8219 -69.8199 -69.8199 -69.8182 -69.8179 -69.8163 -69.8163 -69.8142
   -47.8902 -47.8901 -47.8899 -47.8315 -35.9389 -35.9372 -35.9372 -35.9344
   -35.9287 -35.9286 -35.9282 -35.9262 -35.9254 -35.9252 -35.9230 -35.9221
   -35.9048 -35.9031 -35.9018 -35.9017 -35.9004 -35.8993 -35.8976 -35.8974
   -35.8925 -35.8901 -35.8901 -35.8877 -21.7271 -21.7241 -21.7233 -21.7231
   -21.7203 -21.7195 -21.7182 -21.7182 -21.7174 -21.6642 -21.6640 -21.6640
     8.7962   9.7403   9.7453  10.2293  11.3764  11.7204  11.7248  12.4440
    12.9458  13.0477  13.0510  13.2556  13.3913  13.6259  13.6260  13.6380
    14.2055  14.2357  14.2388  14.3839  14.5040  14.5431  14.5711  14.5893
    14.5902  14.7447  14.7530  14.8704  14.8760  15.0985  15.0993  15.1216
    15.3303  15.3478  15.3720  15.3752  15.6220  15.6839  15.6842  15.6946
    15.7469  15.7469  15.9510  16.0191  16.0442  16.1715  16.1716  16.1933
    17.5006  17.5024  17.5270  17.5524  17.6247  17.6825  17.6837  17.6983
    17.8717  17.8869  17.9027  17.9782  18.0128  18.0142  18.0502  18.0782
    18.3716  18.5592  18.5626  19.2482  19.8436  20.3074  20.3087  20.3458
    20.4783  20.4796  21.5902  22.5547

          k = 0.2250 0.3875 0.3375 ( 12668 PWs)   bands (ev):

   -69.8223 -69.8204 -69.8196 -69.8182 -69.8179 -69.8165 -69.8157 -69.8139
   -47.8902 -47.8901 -47.8899 -47.8315 -35.9408 -35.9394 -35.9385 -35.9359
   -35.9318 -35.9310 -35.9292 -35.9271 -35.9261 -35.9258 -35.9244 -35.9208
   -35.9057 -35.9028 -35.9014 -35.9004 -35.8985 -35.8981 -35.8960 -35.8940
   -35.8910 -35.8887 -35.8878 -35.8857 -21.7268 -21.7240 -21.7231 -21.7229
   -21.7206 -21.7196 -21.7184 -21.7182 -21.7174 -21.6642 -21.6640 -21.6640
     8.6706   9.5572   9.8813  10.2651  11.4520  11.7061  11.9039  12.5748
    12.8645  12.9665  13.0622  13.2425  13.4215  13.6669  13.6786  13.6918
    14.1406  14.1716  14.2010  14.3484  14.4774  14.5441  14.5576  14.5634
    14.6230  14.7690  14.7790  14.8572  14.9101  15.0218  15.1264  15.1342
    15.3409  15.3783  15.3804  15.4432  15.5970  15.6508  15.7064  15.7142
    15.7262  15.7880  15.9852  16.0454  16.0824  16.1772  16.2387  16.2547
    17.4732  17.5021  17.5087  17.5369  17.6245  17.6667  17.6974  17.7191
    17.8416  17.8529  17.8772  17.9544  17.9871  18.0050  18.0442  18.0662
    18.3597  18.5023  18.6775  19.4105  19.6187  19.9764  20.1160  20.1540
    20.2629  20.4569  21.5172  22.3945

          k = 0.2000 0.4000 0.3000 ( 12674 PWs)   bands (ev):

   -69.8225 -69.8208 -69.8194 -69.8182 -69.8179 -69.8167 -69.8153 -69.8136
   -47.8902 -47.8901 -47.8898 -47.8315 -35.9426 -35.9418 -35.9397 -35.9374
   -35.9349 -35.9342 -35.9319 -35.9293 -35.9266 -35.9247 -35.9236 -35.9190
   -35.9072 -35.9040 -35.9027 -35.8989 -35.8973 -35.8954 -35.8925 -35.8907
   -35.8895 -35.8875 -35.8860 -35.8840 -21.7266 -21.7240 -21.7230 -21.7227
   -21.7209 -21.7196 -21.7186 -21.7181 -21.7174 -21.6642 -21.6641 -21.6640
     8.5623   9.3744  10.0182  10.3069  11.5401  11.7110  12.0519  12.6554
    12.7742  12.8715  13.1099  13.2637  13.4679  13.7084  13.7355  13.7519
    14.0716  14.1049  14.1649  14.3066  14.4391  14.5236  14.5509  14.5606
    14.6570  14.7868  14.7931  14.8602  14.9326  14.9648  15.1497  15.1539
    15.3232  15.3836  15.4425  15.5096  15.5726  15.6261  15.7087  15.7168
    15.7559  15.8328  16.0191  16.0739  16.1096  16.1798  16.2910  16.3286
    17.4454  17.4839  17.5034  17.5213  17.6222  17.6452  17.6968  17.7411
    17.8132  17.8201  17.8624  17.9207  17.9610  17.9990  18.0312  18.0535
    18.3500  18.4491  18.8277  19.4010  19.5801  19.6611  19.8402  19.8454
    20.2314  20.4410  21.4129  22.1478

          k = 0.1750 0.4125 0.2625 ( 12685 PWs)   bands (ev):

   -69.8228 -69.8213 -69.8192 -69.8183 -69.8178 -69.8169 -69.8148 -69.8134
   -47.8903 -47.8901 -47.8898 -47.8315 -35.9444 -35.9438 -35.9408 -35.9386
   -35.9376 -35.9371 -35.9347 -35.9323 -35.9257 -35.9235 -35.9225 -35.9173
   -35.9087 -35.9051 -35.9042 -35.8997 -35.8945 -35.8927 -35.8893 -35.8883
   -35.8877 -35.8865 -35.8841 -35.8825 -21.7263 -21.7240 -21.7229 -21.7225
   -21.7212 -21.7196 -21.7188 -21.7181 -21.7173 -21.6642 -21.6641 -21.6640
     8.4720   9.1997  10.1492  10.3538  11.6381  11.7384  12.1554  12.6731
    12.6794  12.7684  13.1975  13.3349  13.5249  13.7489  13.7903  13.8105
    14.0085  14.0440  14.1309  14.2620  14.3933  14.4861  14.5317  14.5849
    14.6895  14.7550  14.8033  14.8881  14.9401  14.9672  15.1648  15.1774
    15.2940  15.3847  15.4973  15.5429  15.5708  15.6410  15.6941  15.7253
    15.8063  15.8794  16.0531  16.1023  16.1318  16.1811  16.3415  16.3885
    17.4187  17.4549  17.5021  17.5103  17.6190  17.6276  17.6706  17.7574
    17.7878  17.8012  17.8516  17.8786  17.9378  17.9976  18.0131  18.0432
    18.3406  18.4006  19.0096  19.1946  19.3712  19.5422  19.5527  19.7539
    20.2147  20.4307  21.2912  21.8983

          k = 0.1500 0.4250 0.2250 ( 12677 PWs)   bands (ev):

   -69.8230 -69.8217 -69.8190 -69.8183 -69.8178 -69.8171 -69.8144 -69.8132
   -47.8903 -47.8901 -47.8898 -47.8315 -35.9461 -35.9457 -35.9417 -35.9398
   -35.9397 -35.9395 -35.9371 -35.9350 -35.9248 -35.9222 -35.9215 -35.9157
   -35.9102 -35.9064 -35.9056 -35.9004 -35.8917 -35.8905 -35.8871 -35.8863
   -35.8857 -35.8850 -35.8825 -35.8811 -21.7260 -21.7241 -21.7231 -21.7223
   -21.7213 -21.7197 -21.7189 -21.7181 -21.7173 -21.6642 -21.6641 -21.6640
     8.4005   9.0363  10.2698  10.4042  11.7431  11.7883  12.2181  12.5820
    12.6473  12.6618  13.3169  13.4382  13.5911  13.7875  13.8188  13.8341
    13.9853  14.0128  14.1012  14.2171  14.3449  14.4454  14.4996  14.6172
    14.6804  14.7199  14.8149  14.9371  14.9408  15.0185  15.1647  15.2043
    15.2534  15.3844  15.4945  15.5278  15.6174  15.6593  15.7324  15.7493
    15.8626  15.9264  16.0866  16.1287  16.1512  16.1824  16.3854  16.4330
    17.3935  17.4236  17.4982  17.5088  17.6149  17.6213  17.6248  17.7615
    17.7704  17.7883  17.8241  17.8482  17.9196  17.9928  18.0022  18.0384
    18.3270  18.3538  19.0034  19.1145  19.2190  19.2567  19.2615  19.9285
    20.2128  20.4265  21.1620  21.6581

          k = 0.1250 0.4375 0.1875 ( 12682 PWs)   bands (ev):

   -69.8232 -69.8221 -69.8188 -69.8183 -69.8178 -69.8173 -69.8140 -69.8130
   -47.8903 -47.8901 -47.8898 -47.8315 -35.9476 -35.9474 -35.9425 -35.9417
   -35.9415 -35.9408 -35.9392 -35.9375 -35.9238 -35.9208 -35.9204 -35.9141
   -35.9116 -35.9076 -35.9070 -35.9013 -35.8895 -35.8884 -35.8862 -35.8850
   -35.8838 -35.8828 -35.8811 -35.8798 -21.7257 -21.7242 -21.7233 -21.7221
   -21.7213 -21.7199 -21.7188 -21.7181 -21.7173 -21.6642 -21.6641 -21.6640
     8.3484   8.8863  10.3760  10.4564  11.8504  11.8587  12.2529  12.4889
    12.5565  12.5991  13.4509  13.5474  13.6671  13.7872  13.7918  13.8233
    14.0330  14.0438  14.0775  14.1733  14.2975  14.4014  14.4561  14.5949
    14.6547  14.7473  14.8244  14.9283  15.0114  15.0906  15.1481  15.2028
    15.2330  15.3829  15.4780  15.5042  15.6272  15.6324  15.8236  15.8299
    15.9221  15.9726  16.1184  16.1513  16.1680  16.1842  16.4205  16.4624
    17.3697  17.3918  17.5023  17.5146  17.5746  17.6151  17.6239  17.7460
    17.7507  17.7731  17.7835  17.8396  17.9068  17.9734  18.0119  18.0407
    18.2972  18.3073  18.8328  18.8984  18.9814  18.9914  19.4509  20.0990
    20.2255  20.4294  21.0319  21.4331

          k = 0.1000 0.4500 0.1500 ( 12672 PWs)   bands (ev):

   -69.8233 -69.8224 -69.8186 -69.8183 -69.8178 -69.8175 -69.8137 -69.8129
   -47.8904 -47.8901 -47.8897 -47.8315 -35.9491 -35.9489 -35.9432 -35.9430
   -35.9430 -35.9417 -35.9409 -35.9396 -35.9227 -35.9196 -35.9192 -35.9131
   -35.9124 -35.9089 -35.9085 -35.9022 -35.8875 -35.8866 -35.8853 -35.8843
   -35.8817 -35.8808 -35.8799 -35.8790 -21.7253 -21.7243 -21.7236 -21.7220
   -21.7212 -21.7202 -21.7186 -21.7181 -21.7172 -21.6641 -21.6641 -21.6641
     8.3158   8.7513  10.4650  10.5076  11.9414  11.9575  12.2735  12.4039
    12.4578  12.5439  13.5837  13.6459  13.7212  13.7268  13.7532  13.8555
    14.0615  14.1067  14.1120  14.1322  14.2543  14.3545  14.4039  14.5074
    14.6953  14.7719  14.8324  14.9147  15.0943  15.1168  15.1460  15.1706
    15.2608  15.3802  15.4641  15.4831  15.5958  15.6009  15.9278  15.9351
    15.9820  16.0175  16.1464  16.1692  16.1810  16.1867  16.4462  16.4786
    17.3469  17.3610  17.5192  17.5303  17.5335  17.6201  17.6319  17.7011
    17.7263  17.7424  17.7781  17.8366  17.8980  17.9566  18.0251  18.0487
    18.2354  18.2594  18.6730  18.7135  18.7477  18.7640  19.6955  20.2521
    20.2579  20.4416  20.9057  21.2277

          k = 0.0750 0.4625 0.1125 ( 12690 PWs)   bands (ev):

   -69.8234 -69.8227 -69.8185 -69.8183 -69.8178 -69.8177 -69.8134 -69.8128
   -47.8904 -47.8901 -47.8897 -47.8315 -35.9504 -35.9503 -35.9444 -35.9443
   -35.9434 -35.9424 -35.9423 -35.9411 -35.9217 -35.9182 -35.9180 -35.9145
   -35.9111 -35.9102 -35.9101 -35.9032 -35.8859 -35.8851 -35.8846 -35.8838
   -35.8801 -35.8793 -35.8790 -35.8783 -21.7250 -21.7243 -21.7240 -21.7220
   -21.7211 -21.7205 -21.7184 -21.7181 -21.7172 -21.6641 -21.6641 -21.6641
     8.3029   8.6326  10.5348  10.5549  12.0310  12.0538  12.2895  12.3318
    12.3709  12.4892  13.6522  13.6585  13.7041  13.7292  13.8442  13.8826
    14.0566  14.0950  14.1830  14.1877  14.2181  14.3057  14.3456  14.4200
    14.7369  14.7926  14.8395  14.8982  15.0750  15.0883  15.1797  15.2472
    15.2868  15.3758  15.4548  15.4667  15.5550  15.5612  16.0321  16.0369
    16.0392  16.0601  16.1680  16.1821  16.1888  16.1897  16.4626  16.4846
    17.3251  17.3330  17.5037  17.5498  17.5604  17.6284  17.6426  17.6479
    17.7005  17.7134  17.7840  17.8426  17.8911  17.9430  18.0391  18.0586
    18.1558  18.1871  18.4690  18.4995  18.6292  18.6447  19.9412  20.2922
    20.3939  20.4654  20.7864  21.0450

          k = 0.0500 0.4750 0.0750 ( 12687 PWs)   bands (ev):

   -69.8234 -69.8229 -69.8183 -69.8182 -69.8179 -69.8178 -69.8132 -69.8128
   -47.8904 -47.8901 -47.8897 -47.8315 -35.9514 -35.9512 -35.9452 -35.9451
   -35.9437 -35.9431 -35.9431 -35.9424 -35.9205 -35.9169 -35.9167 -35.9158
   -35.9115 -35.9115 -35.9096 -35.9043 -35.8846 -35.8841 -35.8841 -35.8836
   -35.8788 -35.8783 -35.8782 -35.8777 -21.7247 -21.7244 -21.7242 -21.7220
   -21.7210 -21.7207 -21.7183 -21.7181 -21.7172 -21.6641 -21.6641 -21.6641
     8.3098   8.5311  10.5839  10.5949  12.1140  12.1326  12.2773  12.3006
    12.3069  12.4388  13.5919  13.5989  13.7989  13.8053  13.9011  13.9269
    14.0649  14.0698  14.1920  14.2517  14.2562  14.2579  14.2837  14.3338
    14.7770  14.8086  14.8457  14.8789  15.0293  15.0382  15.2568  15.3089
    15.3099  15.3693  15.4508  15.4567  15.5158  15.5200  16.0906  16.0999
    16.1209  16.1235  16.1799  16.1895  16.1908  16.1931  16.4712  16.4840
    17.3060  17.3101  17.4921  17.5895  17.5952  17.5987  17.6394  17.6546
    17.6769  17.6866  17.8079  17.8628  17.8855  17.9334  18.0512  18.0641
    18.0759  18.1000  18.2762  18.2993  18.5724  18.5863  20.1713  20.3452
    20.4906  20.5040  20.6761  20.8867

          k = 0.0250 0.4875 0.0375 ( 12694 PWs)   bands (ev):

   -69.8234 -69.8231 -69.8182 -69.8181 -69.8180 -69.8179 -69.8131 -69.8129
   -47.8904 -47.8901 -47.8897 -47.8315 -35.9519 -35.9518 -35.9457 -35.9455
   -35.9439 -35.9437 -35.9435 -35.9433 -35.9195 -35.9171 -35.9155 -35.9155
   -35.9129 -35.9129 -35.9083 -35.9057 -35.8839 -35.8838 -35.8836 -35.8835
   -35.8779 -35.8777 -35.8776 -35.8774 -21.7245 -21.7244 -21.7243 -21.7221
   -21.7209 -21.7208 -21.7182 -21.7181 -21.7172 -21.6641 -21.6641 -21.6641
     8.3363   8.4476  10.6125  10.6224  12.1783  12.1858  12.2422  12.2502
    12.3291  12.3949  13.5499  13.5575  13.8540  13.8827  13.9056  13.9637
    14.0808  14.0959  14.1806  14.2163  14.2224  14.2505  14.3013  14.3057
    14.8121  14.8218  14.8474  14.8574  14.9923  15.0030  15.3148  15.3293
    15.3450  15.3603  15.4531  15.4547  15.4843  15.4857  16.1328  16.1351
    16.1787  16.1788  16.1793  16.1813  16.1976  16.1998  16.4749  16.4806
    17.2929  17.2947  17.4964  17.5526  17.6290  17.6348  17.6501  17.6587
    17.6603  17.6676  17.8502  17.8698  17.9161  17.9358  18.0124  18.0221
    18.0597  18.0754  18.1180  18.1306  18.5455  18.5597  20.3628  20.4104
    20.5278  20.5610  20.5763  20.7528

          k = 0.0000 0.5000 0.0000 ( 12668 PWs)   bands (ev):

   -69.8233 -69.8233 -69.8180 -69.8180 -69.8180 -69.8180 -69.8130 -69.8130
   -47.8904 -47.8901 -47.8897 -47.8315 -35.9520 -35.9519 -35.9457 -35.9456
   -35.9438 -35.9438 -35.9438 -35.9438 -35.9183 -35.9182 -35.9141 -35.9141
   -35.9140 -35.9140 -35.9070 -35.9070 -35.8835 -35.8835 -35.8835 -35.8835
   -35.8774 -35.8773 -35.8773 -35.8771 -21.7245 -21.7243 -21.7243 -21.7221
   -21.7209 -21.7209 -21.7182 -21.7182 -21.7172 -21.6641 -21.6641 -21.6641
     8.3781   8.3867  10.6221  10.6320  12.2156  12.2156  12.2191  12.2191
    12.3562  12.3603  13.5347  13.5426  13.8876  13.8935  13.9297  13.9446
    14.1229  14.1258  14.1871  14.1871  14.1900  14.1900  14.3198  14.3242
    14.8367  14.8367  14.8379  14.8380  14.9780  14.9899  15.3410  15.3410
    15.3522  15.3522  15.4626  15.4626  15.4645  15.4645  16.1628  16.1629
    16.1632  16.1632  16.1902  16.1909  16.2084  16.2115  16.4767  16.4780
    17.2887  17.2888  17.5089  17.5271  17.6499  17.6499  17.6541  17.6568
    17.6568  17.6608  17.8592  17.8743  17.9895  17.9895  17.9942  17.9951
    17.9951  18.0176  18.0627  18.0770  18.5377  18.5521  20.4841  20.4841
    20.4911  20.4911  20.6411  20.6446

[...]
    20.7948  21.0334  21.2649  21.6895

          k = 0.7500 0.4562 0.2937 ( 12660 PWs)   bands (ev):

   -69.8219 -69.8211 -69.8187 -69.8181 -69.8180 -69.8174 -69.8150 -69.8143
   -47.8902 -47.8901 -47.8899 -47.8315 -35.9394 -35.9391 -35.9356 -35.9345
   -35.9345 -35.9341 -35.9319 -35.9308 -35.9211 -35.9186 -35.9181 -35.9139
   -35.9122 -35.9094 -35.9087 -35.9047 -35.8960 -35.8952 -35.8923 -35.8917
   -35.8914 -35.8910 -35.8886 -35.8878 -21.7268 -21.7243 -21.7230 -21.7228
   -21.7208 -21.7192 -21.7187 -21.7180 -21.7174 -21.6642 -21.6641 -21.6640
     8.8506   9.2047  10.1825  10.2529  11.4239  11.4747  12.1136  12.3890
    12.8986  12.9153  13.1710  13.2481  13.4825  13.6045  13.6612  13.6677
    14.1584  14.1629  14.2558  14.3264  14.4554  14.4877  14.6162  14.6252
    14.6758  14.7180  14.7318  14.7923  14.9207  14.9736  15.1639  15.2715
    15.2870  15.3451  15.4102  15.4457  15.6062  15.6149  15.6672  15.6685
    15.8218  15.8576  15.9369  15.9807  16.0477  16.0725  16.2629  16.2821
    17.4706  17.4950  17.5466  17.5583  17.6263  17.6379  17.7204  17.7295
    17.8583  17.8741  17.8906  17.9231  17.9829  17.9994  18.0371  18.0658
    18.3731  18.3935  18.9173  19.2206  19.7779  19.8666  20.0012  20.0370
    20.7623  20.9927  21.3069  21.7585

          k = 0.7500 0.4500 0.3000 ( 12660 PWs)   bands (ev):

   -69.8219 -69.8210 -69.8188 -69.8181 -69.8180 -69.8174 -69.8151 -69.8143
   -47.8902 -47.8901 -47.8899 -47.8315 -35.9393 -35.9389 -35.9357 -35.9345
   -35.9341 -35.9338 -35.9314 -35.9302 -35.9216 -35.9193 -35.9187 -35.9144
   -35.9117 -35.9088 -35.9080 -35.9041 -35.8966 -35.8956 -35.8924 -35.8923
   -35.8915 -35.8913 -35.8888 -35.8878 -21.7268 -21.7242 -21.7230 -21.7229
   -21.7207 -21.7192 -21.7187 -21.7180 -21.7174 -21.6642 -21.6641 -21.6640
     8.8426   9.2459  10.1581  10.2494  11.4170  11.4830  12.0825  12.3966
    12.9056  12.9264  13.1610  13.2483  13.4708  13.6074  13.6567  13.6633
    14.1646  14.1703  14.2559  14.3349  14.4596  14.4952  14.6093  14.6154
    14.6703  14.7234  14.7337  14.8021  14.9163  14.9794  15.1573  15.2731
    15.2793  15.3455  15.4006  15.4426  15.6077  15.6187  15.6715  15.6721
    15.8084  15.8484  15.9388  15.9879  16.0440  16.0762  16.2550  16.2755
    17.4719  17.4990  17.5441  17.5576  17.6262  17.6405  17.7174  17.7267
    17.8608  17.8744  17.8931  17.9304  17.9856  18.0056  18.0359  18.0676
    18.3733  18.4001  18.8833  19.2247  19.7884  19.8986  20.0361  20.0757
    20.7293  20.9522  21.3466  21.8275

          k = 0.7500 0.4437 0.3062 ( 12664 PWs)   bands (ev):

   -69.8219 -69.8209 -69.8189 -69.8181 -69.8180 -69.8173 -69.8152 -69.8143
   -47.8902 -47.8901 -47.8899 -47.8315 -35.9392 -35.9387 -35.9359 -35.9344
   -35.9337 -35.9333 -35.9310 -35.9296 -35.9221 -35.9200 -35.9193 -35.9150
   -35.9111 -35.9082 -35.9073 -35.9035 -35.8971 -35.8961 -35.8930 -35.8924
   -35.8919 -35.8912 -35.8889 -35.8878 -21.7269 -21.7242 -21.7230 -21.7229
   -21.7207 -21.7192 -21.7186 -21.7180 -21.7174 -21.6642 -21.6641 -21.6640
     8.8352   9.2872  10.1316  10.2462  11.4105  11.4936  12.0513  12.4037
    12.9121  12.9374  13.1513  13.2487  13.4596  13.6099  13.6525  13.6592
    14.1704  14.1774  14.2559  14.3428  14.4642  14.5027  14.6012  14.6076
    14.6645  14.7279  14.7359  14.8115  14.9118  14.9858  15.1513  15.2589
    15.2868  15.3457  15.3914  15.4391  15.6093  15.6228  15.6753  15.6764
    15.7954  15.8393  15.9406  15.9950  16.0405  16.0809  16.2473  16.2685
    17.4734  17.5030  17.5413  17.5569  17.6261  17.6434  17.7145  17.7239
    17.8634  17.8746  17.8952  17.9375  17.9882  18.0116  18.0346  18.0693
    18.3735  18.4077  18.8504  19.2284  19.7977  19.9310  20.0713  20.1132
    20.6957  20.9117  21.3838  21.8965

          k = 0.7500 0.4375 0.3125 ( 12659 PWs)   bands (ev):

   -69.8219 -69.8208 -69.8189 -69.8181 -69.8180 -69.8172 -69.8153 -69.8143
   -47.8902 -47.8901 -47.8899 -47.8315 -35.9391 -35.9385 -35.9360 -35.9344
   -35.9333 -35.9329 -35.9306 -35.9290 -35.9227 -35.9207 -35.9198 -35.9157
   -35.9104 -35.9075 -35.9066 -35.9030 -35.8977 -35.8965 -35.8935 -35.8924
   -35.8924 -35.8911 -35.8889 -35.8878 -21.7269 -21.7242 -21.7231 -21.7229
   -21.7206 -21.7193 -21.7186 -21.7180 -21.7174 -21.6642 -21.6641 -21.6640
     8.8285   9.3288  10.1030  10.2433  11.4046  11.5064  12.0202  12.4104
    12.9180  12.9484  13.1417  13.2492  13.4490  13.6121  13.6486  13.6555
    14.1760  14.1843  14.2556  14.3499  14.4690  14.5103  14.5924  14.6015
    14.6586  14.7314  14.7385  14.8205  14.9071  14.9929  15.1459  15.2443
    15.2946  15.3457  15.3827  15.4352  15.6110  15.6272  15.6785  15.6814
    15.7828  15.8303  15.9423  16.0019  16.0372  16.0864  16.2397  16.2611
    17.4751  17.5067  17.5382  17.5563  17.6260  17.6465  17.7117  17.7209
    17.8658  17.8748  17.8970  17.9442  17.9908  18.0173  18.0333  18.0709
    18.3735  18.4162  18.8185  19.2318  19.8060  19.9638  20.1070  20.1491
    20.6617  20.8715  21.4183  21.9653

          k = 0.7500 0.4312 0.3187 ( 12665 PWs)   bands (ev):

   -69.8219 -69.8207 -69.8190 -69.8181 -69.8180 -69.8171 -69.8154 -69.8143
   -47.8902 -47.8901 -47.8899 -47.8315 -35.9390 -35.9384 -35.9361 -35.9344
   -35.9329 -35.9324 -35.9301 -35.9284 -35.9233 -35.9213 -35.9204 -35.9164
   -35.9098 -35.9069 -35.9059 -35.9024 -35.8983 -35.8970 -35.8942 -35.8929
   -35.8924 -35.8910 -35.8891 -35.8878 -21.7269 -21.7242 -21.7231 -21.7230
   -21.7206 -21.7193 -21.7185 -21.7180 -21.7174 -21.6642 -21.6641 -21.6640
     8.8224   9.3704  10.0726  10.2406  11.3993  11.5212  11.9892  12.4165
    12.9233  12.9592  13.1322  13.2499  13.4390  13.6141  13.6451  13.6521
    14.1811  14.1910  14.2552  14.3564  14.4740  14.5180  14.5838  14.5962
    14.6525  14.7340  14.7414  14.8291  14.9024  15.0007  15.1410  15.2294
    15.3024  15.3454  15.3745  15.4308  15.6127  15.6317  15.6815  15.6868
    15.7707  15.8215  15.9439  16.0085  16.0340  16.0927  16.2324  16.2534
    17.4769  17.5102  17.5348  17.5556  17.6258  17.6498  17.7089  17.7178
    17.8681  17.8752  17.8986  17.9503  17.9934  18.0224  18.0321  18.0723
    18.3733  18.4258  18.7878  19.2349  19.8134  19.9969  20.1429  20.1831
    20.6272  20.8313  21.4501  22.0339

          k = 0.7500 0.4250 0.3250 ( 12671 PWs)   bands (ev):

   -69.8219 -69.8206 -69.8191 -69.8182 -69.8179 -69.8170 -69.8155 -69.8143
   -47.8902 -47.8901 -47.8899 -47.8315 -35.9390 -35.9382 -35.9362 -35.9345
   -35.9325 -35.9318 -35.9297 -35.9278 -35.9238 -35.9220 -35.9210 -35.9171
   -35.9092 -35.9063 -35.9053 -35.9019 -35.8989 -35.8976 -35.8947 -35.8934
   -35.8925 -35.8909 -35.8892 -35.8877 -21.7269 -21.7242 -21.7231 -21.7230
   -21.7205 -21.7193 -21.7185 -21.7181 -21.7174 -21.6642 -21.6641 -21.6640
     8.8169   9.4121  10.0406  10.2382  11.3945  11.5380  11.9582  12.4221
    12.9280  12.9698  13.1229  13.2505  13.4298  13.6159  13.6419  13.6492
    14.1859  14.1974  14.2544  14.3622  14.4790  14.5257  14.5758  14.5914
    14.6462  14.7361  14.7441  14.8371  14.8978  15.0091  15.1368  15.2144
    15.3104  15.3450  15.3670  15.4258  15.6144  15.6365  15.6842  15.6924
    15.7590  15.8127  15.9453  16.0148  16.0311  16.0997  16.2253  16.2453
    17.4790  17.5134  17.5312  17.5551  17.6256  17.6533  17.7062  17.7147
    17.8698  17.8759  17.8999  17.9559  17.9958  18.0260  18.0319  18.0735
    18.3732  18.4364  18.7581  19.2377  19.8198  20.0303  20.1792  20.2147
    20.5925  20.7914  21.4789  22.1023

          k = 0.7500 0.4187 0.3312 ( 12666 PWs)   bands (ev):

   -69.8219 -69.8205 -69.8192 -69.8182 -69.8179 -69.8169 -69.8156 -69.8142
   -47.8902 -47.8901 -47.8899 -47.8315 -35.9390 -35.9380 -35.9364 -35.9344
   -35.9320 -35.9313 -35.9292 -35.9271 -35.9244 -35.9227 -35.9215 -35.9177
   -35.9086 -35.9057 -35.9046 -35.9013 -35.8995 -35.8980 -35.8954 -35.8939
   -35.8925 -35.8909 -35.8893 -35.8878 -21.7270 -21.7242 -21.7232 -21.7230
   -21.7205 -21.7193 -21.7184 -21.7181 -21.7174 -21.6642 -21.6640 -21.6640
     8.8121   9.4538  10.0070  10.2361  11.3903  11.5564  11.9274  12.4271
    12.9322  12.9803  13.1136  13.2514  13.4213  13.6174  13.6391  13.6465
    14.1902  14.2036  14.2535  14.3673  14.4840  14.5336  14.5685  14.5871
    14.6398  14.7380  14.7465  14.8444  14.8934  15.0183  15.1331  15.1994
    15.3184  15.3442  15.3605  15.4206  15.6159  15.6415  15.6865  15.6984
    15.7479  15.8040  15.9466  16.0209  16.0284  16.1075  16.2188  16.2369
    17.4812  17.5164  17.5275  17.5544  17.6254  17.6569  17.7036  17.7116
    17.8709  17.8773  17.9009  17.9610  17.9983  18.0264  18.0345  18.0747
    18.3729  18.4481  18.7295  19.2402  19.8255  20.0641  20.2158  20.2436
    20.5574  20.7517  21.5046  22.1701

          k = 0.7500 0.4125 0.3375 ( 12670 PWs)   bands (ev):

   -69.8219 -69.8205 -69.8193 -69.8182 -69.8179 -69.8168 -69.8157 -69.8142
   -47.8902 -47.8901 -47.8899 -47.8315 -35.9390 -35.9379 -35.9365 -35.9344
   -35.9315 -35.9308 -35.9288 -35.9265 -35.9249 -35.9233 -35.9221 -35.9184
   -35.9080 -35.9051 -35.9039 -35.9008 -35.9001 -35.8986 -35.8960 -35.8944
   -35.8925 -35.8908 -35.8894 -35.8878 -21.7270 -21.7242 -21.7232 -21.7231
   -21.7204 -21.7194 -21.7184 -21.7181 -21.7174 -21.6642 -21.6640 -21.6640
     8.8079   9.4956   9.9721  10.2343  11.3866  11.5765  11.8969  12.4315
    12.9358  12.9907  13.1045  13.2522  13.4138  13.6189  13.6365  13.6443
    14.1941  14.2094  14.2522  14.3717  14.4886  14.5414  14.5622  14.5832
    14.6331  14.7396  14.7485  14.8510  14.8892  15.0281  15.1299  15.1844
    15.3263  15.3428  15.3553  15.4148  15.6174  15.6467  15.6887  15.7046
    15.7372  15.7955  15.9477  16.0260  16.0264  16.1157  16.2127  16.2282
    17.4835  17.5191  17.5237  17.5539  17.6253  17.6606  17.7011  17.7084
    17.8714  17.8792  17.9017  17.9654  18.0006  18.0251  18.0382  18.0756
    18.3726  18.4608  18.7020  19.2423  19.8304  20.0982  20.2525  20.2697
    20.5221  20.7121  21.5271  22.2373

          k = 0.7500 0.4062 0.3437 ( 12676 PWs)   bands (ev):

   -69.8219 -69.8204 -69.8194 -69.8182 -69.8179 -69.8167 -69.8158 -69.8142
   -47.8902 -47.8901 -47.8899 -47.8315 -35.9390 -35.9378 -35.9366 -35.9344
   -35.9310 -35.9303 -35.9284 -35.9259 -35.9254 -35.9239 -35.9226 -35.9192
   -35.9073 -35.9045 -35.9033 -35.9007 -35.9002 -35.8991 -35.8967 -35.8949
   -35.8925 -35.8907 -35.8895 -35.8878 -21.7270 -21.7241 -21.7232 -21.7231
   -21.7204 -21.7194 -21.7184 -21.7181 -21.7174 -21.6642 -21.6640 -21.6640
     8.8043   9.5373   9.9361  10.2328  11.3835  11.5979  11.8667  12.4353
    12.9389  13.0009  13.0954  13.2531  13.4072  13.6201  13.6342  13.6423
    14.1975  14.2149  14.2506  14.3754  14.4929  14.5489  14.5570  14.5799
    14.6263  14.7410  14.7501  14.8567  14.8854  15.0385  15.1273  15.1696
    15.3343  15.3405  15.3518  15.4086  15.6187  15.6521  15.6905  15.7111
    15.7270  15.7871  15.9487  16.0240  16.0314  16.1243  16.2072  16.2192
    17.4861  17.5199  17.5214  17.5535  17.6251  17.6643  17.6987  17.7055
    17.8716  17.8811  17.9022  17.9693  18.0028  18.0234  18.0417  18.0764
    18.3724  18.4746  18.6757  19.2441  19.8344  20.1326  20.2883  20.2935
    20.4866  20.6728  21.5462  22.3034

          k = 0.7500 0.4000 0.3500 ( 12671 PWs)   bands (ev):

   -69.8219 -69.8203 -69.8195 -69.8182 -69.8179 -69.8166 -69.8159 -69.8143
   -47.8902 -47.8901 -47.8899 -47.8315 -35.9389 -35.9376 -35.9367 -35.9344
   -35.9305 -35.9298 -35.9280 -35.9258 -35.9253 -35.9245 -35.9232 -35.9199
   -35.9067 -35.9039 -35.9027 -35.9013 -35.8997 -35.8995 -35.8973 -35.8954
   -35.8925 -35.8905 -35.8896 -35.8877 -21.7270 -21.7241 -21.7232 -21.7231
   -21.7203 -21.7194 -21.7183 -21.7181 -21.7174 -21.6642 -21.6640 -21.6640
     8.8014   9.5788   9.8990  10.2315  11.3809  11.6207  11.8369  12.4384
    12.9414  13.0109  13.0862  13.2539  13.4016  13.6213  13.6322  13.6407
    14.2003  14.2200  14.2487  14.3785  14.4967  14.5509  14.5582  14.5771
    14.6193  14.7423  14.7513  14.8615  14.8822  15.0496  15.1252  15.1549
    15.3373  15.3424  15.3499  15.4022  15.6198  15.6578  15.6919  15.7174
    15.7179  15.7788  15.9495  16.0223  16.0358  16.1333  16.2024  16.2100
    17.4889  17.5161  17.5234  17.5531  17.6250  17.6681  17.6961  17.7029
    17.8717  17.8830  17.9026  17.9724  18.0050  18.0215  18.0446  18.0770
    18.3721  18.4896  18.6504  19.2455  19.8378  20.1672  20.3105  20.3277
    20.4510  20.6336  21.5620  22.3680

          k = 0.7500 0.3937 0.3562 ( 12674 PWs)   bands (ev):

   -69.8219 -69.8202 -69.8196 -69.8182 -69.8179 -69.8165 -69.8160 -69.8142
   -47.8902 -47.8901 -47.8899 -47.8315 -35.9389 -35.9375 -35.9368 -35.9344
   -35.9300 -35.9292 -35.9278 -35.9260 -35.9251 -35.9246 -35.9237 -35.9205
   -35.9061 -35.9034 -35.9020 -35.9018 -35.9001 -35.8991 -35.8978 -35.8959
   -35.8925 -35.8904 -35.8898 -35.8877 -21.7270 -21.7241 -21.7233 -21.7231
   -21.7203 -21.7194 -21.7183 -21.7181 -21.7174 -21.6642 -21.6640 -21.6640
     8.7991   9.6202   9.8610  10.2305  11.3789  11.6447  11.8075  12.4409
    12.9433  13.0207  13.0771  13.2546  13.3971  13.6225  13.6303  13.6395
    14.2025  14.2248  14.2464  14.3809  14.4998  14.5477  14.5654  14.5752
    14.6121  14.7433  14.7521  14.8653  14.8795  15.0612  15.1235  15.1405
    15.3345  15.3484  15.3507  15.3954  15.6208  15.6638  15.6931  15.7083
    15.7248  15.7706  15.9502  16.0209  16.0393  16.1427  16.1985  16.2007
    17.4918  17.5123  17.5250  17.5528  17.6249  17.6719  17.6933  17.7008
    17.8717  17.8846  17.9027  17.9749  18.0072  18.0196  18.0471  18.0775
    18.3719  18.5057  18.6263  19.2467  19.8403  20.2022  20.3257  20.3650
    20.4154  20.5946  21.5742  22.4300

          k = 0.7500 0.3875 0.3625 ( 12675 PWs)   bands (ev):

   -69.8219 -69.8201 -69.8197 -69.8182 -69.8179 -69.8164 -69.8161 -69.8142
   -47.8902 -47.8901 -47.8899 -47.8315 -35.9389 -35.9374 -35.9370 -35.9344
   -35.9295 -35.9287 -35.9279 -35.9260 -35.9256 -35.9242 -35.9240 -35.9212
   -35.9055 -35.9028 -35.9024 -35.9014 -35.9006 -35.8986 -35.8985 -35.8964
   -35.8925 -35.8903 -35.8899 -35.8877 -21.7270 -21.7241 -21.7233 -21.7231
   -21.7203 -21.7194 -21.7183 -21.7182 -21.7174 -21.6642 -21.6640 -21.6640
     8.7975   9.6614   9.8223  10.2298  11.3775  11.6697  11.7786  12.4426
    12.9447  13.0304  13.0680  13.2551  13.3939  13.6236  13.6287  13.6387
    14.2042  14.2292  14.2438  14.3826  14.5021  14.5452  14.5709  14.5759
    14.6048  14.7440  14.7526  14.8681  14.8776  15.0732  15.1220  15.1267
    15.3322  15.3481  15.3582  15.3884  15.6214  15.6702  15.6940  15.6997
    15.7320  15.7626  15.9506  16.0199  16.0420  16.1522  16.1910  16.1957
    17.4948  17.5087  17.5261  17.5526  17.6248  17.6756  17.6901  17.6994
    17.8717  17.8859  17.9028  17.9767  18.0093  18.0176  18.0488  18.0779
    18.3717  18.5229  18.6034  19.2476  19.8422  20.2373  20.3366  20.3794
    20.4030  20.5559  21.5831  22.4873

          k = 0.7500 0.3812 0.3687 ( 12678 PWs)   bands (ev):

   -69.8219 -69.8200 -69.8198 -69.8182 -69.8179 -69.8163 -69.8161 -69.8142
   -47.8902 -47.8901 -47.8899 -47.8315 -35.9389 -35.9374 -35.9371 -35.9344
   -35.9291 -35.9283 -35.9282 -35.9261 -35.9257 -35.9248 -35.9234 -35.9218
   -35.9050 -35.9029 -35.9023 -35.9012 -35.9008 -35.8990 -35.8980 -35.8970
   -35.8925 -35.8902 -35.8900 -35.8877 -21.7271 -21.7241 -21.7233 -21.7231
   -21.7203 -21.7194 -21.7182 -21.7182 -21.7174 -21.6642 -21.6640 -21.6640
     8.7966   9.7022   9.7829  10.2294  11.3767  11.6957  11.7503  12.4437
    12.9455  13.0398  13.0588  13.2554  13.3919  13.6247  13.6273  13.6381
    14.2051  14.2332  14.2409  14.3836  14.5035  14.5436  14.5713  14.5823
    14.5973  14.7445  14.7529  14.8698  14.8763  15.0858  15.1123  15.1219
    15.3308  15.3479  15.3659  15.3812  15.6218  15.6769  15.6917  15.6945
    15.7394  15.7547  15.9509  16.0193  16.0436  16.1619  16.1814  16.1939
    17.4980  17.5051  17.5268  17.5525  17.6247  17.6794  17.6868  17.6986
    17.8717  17.8867  17.9028  17.9778  18.0113  18.0157  18.0498  18.0781
    18.3716  18.5413  18.5816  19.2481  19.8433  20.2726  20.3414  20.3458
    20.4408  20.5173  21.5884  22.5340

          k = 0.7500 0.3750 0.3750 ( 12680 PWs)   bands (ev):

   -69.8219 -69.8199 -69.8199 -69.8182 -69.8179 -69.8163 -69.8163 -69.8142
   -47.8902 -47.8901 -47.8899 -47.8315 -35.9389 -35.9372 -35.9372 -35.9344
   -35.9287 -35.9286 -35.9282 -35.9262 -35.9254 -35.9252 -35.9230 -35.9221
   -35.9048 -35.9031 -35.9018 -35.9017 -35.9004 -35.8993 -35.8976 -35.8974
   -35.8925 -35.8901 -35.8901 -35.8877 -21.7271 -21.7241 -21.7233 -21.7231
   -21.7203 -21.7195 -21.7182 -21.7182 -21.7174 -21.6642 -21.6640 -21.6640
     8.7962   9.7403   9.7453  10.2293  11.3764  11.7204  11.7248  12.4440
    12.9458  13.0477  13.0510  13.2556  13.3913  13.6259  13.6260  13.6380
    14.2055  14.2357  14.2388  14.3839  14.5040  14.5431  14.5711  14.5893
    14.5902  14.7447  14.7530  14.8704  14.8760  15.0985  15.0993  15.1216
    15.3303  15.3478  15.3720  15.3752  15.6220  15.6839  15.6842  15.6946
    15.7469  15.7469  15.9510  16.0191  16.0442  16.1715  16.1716  16.1933
    17.5006  17.5024  17.5270  17.5524  17.6247  17.6825  17.6837  17.6983
    17.8717  17.8869  17.9027  17.9782  18.0128  18.0142  18.0502  18.0782
    18.3716  18.5592  18.5626  19.2482  19.8436  20.3074  20.3087  20.3458
    20.4783  20.4796  21.5902  22.5547

     Writing all to output data dir ./work/pwscf.save/

     init_run     :      1.23s CPU      1.28s WALL (       1 calls)
     electrons    :    236.22s CPU    243.31s WALL (       1 calls)

     Called by init_run:
     wfcinit      :      0.00s CPU      0.00s WALL (       1 calls)
     wfcinit:atom :      0.14s CPU      0.15s WALL (     101 calls)
     wfcinit:wfcr :     14.93s CPU     15.42s WALL (     101 calls)
     potinit      :      0.50s CPU      0.53s WALL (       1 calls)
     hinit0       :      0.40s CPU      0.40s WALL (       1 calls)

     Called by electrons:
     c_bands      :    236.20s CPU    243.30s WALL (       1 calls)
     v_of_rho     :      0.04s CPU      0.04s WALL (       1 calls)
     v_h          :      0.00s CPU      0.00s WALL (       1 calls)
     v_xc         :      0.04s CPU      0.04s WALL (       1 calls)
     newd         :      0.24s CPU      0.26s WALL (       1 calls)
     PAW_pot      :      0.19s CPU      0.19s WALL (       1 calls)

     Called by c_bands:
     init_us_2    :      0.14s CPU      0.15s WALL (     101 calls)
     init_us_2:cp :      0.14s CPU      0.15s WALL (     101 calls)
     cegterg      :    218.85s CPU    224.82s WALL (     140 calls)

     Called by sum_band:

     Called by *egterg:
     cdiaghg      :     39.13s CPU     39.18s WALL (    2079 calls)
     cegterg:over :     29.28s CPU     29.67s WALL (    1978 calls)
     cegterg:upda :      9.81s CPU      9.85s WALL (    1978 calls)
     cegterg:last :     24.98s CPU     25.02s WALL (    1008 calls)
     h_psi        :     98.64s CPU    104.31s WALL (    2219 calls)
     s_psi        :     12.83s CPU     13.03s WALL (    2219 calls)
     g_psi        :      0.60s CPU      0.60s WALL (    1978 calls)

     Called by h_psi:
     h_psi:calbec :     18.75s CPU     19.49s WALL (    2219 calls)
     vloc_psi     :     65.30s CPU     70.17s WALL (    2219 calls)
     add_vuspsi   :     13.86s CPU     13.91s WALL (    2219 calls)

     General routines
     calbec       :     18.75s CPU     19.49s WALL (    2219 calls)
     fft          :      0.27s CPU      0.28s WALL (      13 calls)
     ffts         :      0.27s CPU      0.27s WALL (       1 calls)
     fftw         :     60.68s CPU     65.20s WALL (  281542 calls)
     interpolate  :      0.27s CPU      0.27s WALL (       1 calls)

     Parallel routines

     PAW routines
     PAW_pot      :      0.19s CPU      0.19s WALL (       1 calls)

     PWSCF        :   3m59.32s CPU   4m21.89s WALL


   This run was terminated on:  16:51:29  22Sep2023            

=------------------------------------------------------------------------------=
   JOB DONE.
=------------------------------------------------------------------------------=
