<UPF version="2.0.1">
  <PP_INFO>
    Generated using "atomic" code by A. Dal Corso  v.7.2
    Author: ADC
    Generation date: 20Sep2023
    Pseudopotential type: PAW
    Element: In
    Functional:  SLA  PW   PBX  PBC
    Suggested minimum cutoff for wavefunctions:  48. Ry
    Suggested minimum cutoff for charge density: 190. Ry
    The Pseudo was generated with a Scalar-Relativistic Calculation
    Local Potential by smoothing AE potential with Bessel fncs, cutoff radius:   1.9000
    Valence configuration: 
    nl pn  l   occ       Rcut    Rcut US       E pseu
    5S  1  0  2.00      1.800      2.000    -0.603497
    5P  2  1  1.00      2.300      2.500    -0.185108
    4D  3  2 10.00      1.600      2.000    -1.368788
    Generation configuration:
    5S  1  0  2.00      1.800      2.000    -0.603495
    5S  1  0  0.00      1.800      2.000     3.100000
    5P  2  1  1.00      2.300      2.500    -0.185107
    5P  2  1  0.00      2.300      2.500     6.300000
    4D  3  2 10.00      1.600      2.000    -1.368785
    4D  3  2  0.00      1.600      2.000    -0.600000
    Pseudization used: troullier-martins
    <PP_INPUTFILE>
@input
title='In',
zed=49.,
rel=1,
config='[Kr] 4d10.0 5s2.0 5p1.0',
iswitch=3,
dft='PBE'
/
@inputp
lpaw=.true.,
pseudotype=3,
file_pseudopw='In.pbe-dn-kjpaw_psl.0.2.2.UPF',
author='ADC',
lloc=-1,
rcloc=1.9,
which_augfun='BESSEL',
rmatch_augfun=1.9,
nlcc=.true.,
new_core_ps=.true.,
rcore=1.2,
tm=.true.
/
6
5S  1  0  2.00  0.00  1.80  2.00  0.0
5S  1  0  0.00  3.10  1.80  2.00  0.0
5P  2  1  1.00  0.00  2.30  2.50  0.0
5P  2  1  0.00  6.30  2.30  2.50  0.0
4D  3  2 10.00  0.00  1.60  2.00  0.0
4D  3  2  0.00 -0.60  1.60  2.00  0.0
    </PP_INPUTFILE>
  </PP_INFO>
    <!-- END OF HUMAN READABLE SECTION -->
  <PP_HEADER generated="Generated using 'atomic' code by A. Dal Corso  v.7.2" author="ADC" date="20Sep2023" comment="" element="In" pseudo_type="PAW" relativistic="scalar" is_ultrasoft="true" is_paw="true" is_coulomb="false" has_so="false" has_wfc="true" has_gipaw="false" paw_as_gipaw="false" core_correction="true" functional=" SLA  PW   PBX  PBC" z_valence="13.000000000000000" total_psenergy="-410.58634992738263" wfc_cutoff="47.587219570846159" rho_cutoff="190.34887828338464" l_max="2" l_max_rho="4" l_local="-1" mesh_size="1241" number_of_wfc="3" number_of_proj="6"/>
  <PP_MESH mesh="1241" dx="1.2500000000000001E-002" xmin="-7.0000000000000000" rmax="100.00000000000000" zmesh="49.000000000000000">
    <PP_R>
   1.860983603172482E-05   1.884391895242903E-05   1.908094627380780E-05
   1.932095503186233E-05   1.956398272844938E-05   1.981006733714100E-05
   2.005924730915793E-05   2.031156157937778E-05   2.056704957241858E-05
   2.082575120879907E-05   2.108770691117627E-05   2.135295761066160E-05
   2.162154475321653E-05   2.189351030612851E-05   2.216889676456853E-05
   2.244774715823098E-05   2.273010505805721E-05   2.301601458304352E-05
   2.330552040713485E-05   2.359866776620526E-05   2.389550246512601E-05
   2.419607088492271E-05   2.450041999002246E-05   2.480859733559214E-05
   2.512065107496900E-05   2.543662996718469E-05   2.575658338458397E-05
   2.608056132053928E-05   2.640861439726220E-05   2.674079387371347E-05
   2.707715165361207E-05   2.741774029354544E-05   2.776261301118151E-05
   2.811182369358402E-05   2.846542690563263E-05   2.882347789854860E-05
   2.918603261852805E-05   2.955314771548358E-05   2.992488055189598E-05
   3.030128921177728E-05   3.068243250974638E-05   3.106837000021901E-05
   3.145916198671327E-05   3.185486953127209E-05   3.225555446400443E-05
   3.266127939274621E-05   3.307210771284300E-05   3.348810361705563E-05
   3.390933210559049E-05   3.433585899625594E-05   3.476775093474641E-05
   3.520507540505596E-05   3.564790074002285E-05   3.609629613200655E-05
   3.655033164369938E-05   3.701007821907378E-05   3.747560769446749E-05
   3.794699280980819E-05   3.842430721997913E-05   3.890762550632809E-05
   3.939702318832060E-05   3.989257673534015E-05   4.039436357863667E-05
   4.090246212342529E-05   4.141695176113743E-05   4.193791288182569E-05
   4.246542688672509E-05   4.299957620097213E-05   4.354044428648384E-05
   4.408811565499907E-05   4.464267588128337E-05   4.520421161650035E-05
   4.577281060175109E-05   4.634856168178381E-05   4.693155481887625E-05
   4.752188110689212E-05   4.811963278551496E-05   4.872490325466068E-05
   4.933778708907150E-05   4.995838005309353E-05   5.058677911563997E-05
   5.122308246534283E-05   5.186738952589507E-05   5.251980097158571E-05
   5.318041874303058E-05   5.384934606310044E-05   5.452668745305001E-05
   5.521254874884952E-05   5.590703711772180E-05   5.661026107488752E-05
   5.732233050052067E-05   5.804335665691770E-05   5.877345220588251E-05
   5.951273122632995E-05   6.026130923211115E-05   6.101930319006246E-05
   6.178683153828195E-05   6.256401420463558E-05   6.335097262549609E-05
   6.414782976471796E-05   6.495471013285034E-05   6.577173980659237E-05
   6.659904644849282E-05   6.743675932689759E-05   6.828500933614841E-05
   6.914392901703493E-05   7.001365257750479E-05   7.089431591363374E-05
   7.178605663085976E-05   7.268901406548427E-05   7.360332930644348E-05
   7.452914521735395E-05   7.546660645883535E-05   7.641585951111389E-05
   7.737705269691037E-05   7.835033620461559E-05   7.933586211175777E-05
   8.033378440876497E-05   8.134425902302633E-05   8.236744384325629E-05
   8.340349874416462E-05   8.445258561143749E-05   8.551486836703223E-05
   8.659051299479062E-05   8.767968756637428E-05   8.878256226752591E-05
   8.989930942466135E-05   9.103010353179596E-05   9.217512127780951E-05
   9.333454157405455E-05   9.450854558231114E-05   9.569731674309410E-05
   9.690104080431587E-05   9.811990585030991E-05   9.935410233121965E-05
   1.006038230927562E-04   1.018692634063310E-04   1.031506209995676E-04
   1.044480960871970E-04   1.057618914023413E-04   1.070922122281915E-04
   1.084392664300832E-04   1.098032644879759E-04   1.111844195293413E-04
   1.125829473624647E-04   1.139990665101653E-04   1.154329982439410E-04
   1.168849666185425E-04   1.183551985069825E-04   1.198439236359847E-04
   1.213513746218795E-04   1.228777870069502E-04   1.244233992962375E-04
   1.259884529948061E-04   1.275731926454808E-04   1.291778658670561E-04
   1.308027233929874E-04   1.324480191105691E-04   1.341140101006043E-04
   1.358009566775750E-04   1.375091224303157E-04   1.392387742632006E-04
   1.409901824378476E-04   1.427636206153472E-04   1.445593658990230E-04
   1.463776988777286E-04   1.482189036696917E-04   1.500832679669068E-04
   1.519710830800885E-04   1.538826439841893E-04   1.558182493644890E-04
   1.577782016632668E-04   1.597628071270566E-04   1.617723758544999E-04
   1.638072218447992E-04   1.658676630467798E-04   1.679540214085720E-04
   1.700666229279145E-04   1.722057977030925E-04   1.743718799845173E-04
   1.765652082269517E-04   1.787861251423965E-04   1.810349777536379E-04
   1.833121174484717E-04   1.856179000346086E-04   1.879526857952682E-04
   1.903168395454761E-04   1.927107306890655E-04   1.951347332763981E-04
   1.975892260628100E-04   2.000745925677924E-04   2.025912211349186E-04
   2.051395049925222E-04   2.077198423151402E-04   2.103326362857296E-04
   2.129782951586634E-04   2.156572323235236E-04   2.183698663696924E-04
   2.211166211517582E-04   2.238979258557446E-04   2.267142150661695E-04
   2.295659288339523E-04   2.324535127451710E-04   2.353774179906862E-04
   2.383381014366419E-04   2.413360256958493E-04   2.443716592000739E-04
   2.474454762732265E-04   2.505579572054783E-04   2.537095883283080E-04
   2.569008620904898E-04   2.601322771350422E-04   2.634043383771402E-04
   2.667175570830098E-04   2.700724509498151E-04   2.734695441865475E-04
   2.769093675959374E-04   2.803924586573907E-04   2.839193616109718E-04
   2.874906275424436E-04   2.911068144693725E-04   2.947684874283240E-04
   2.984762185631474E-04   3.022305872143755E-04   3.060321800097493E-04
   3.098815909558764E-04   3.137794215310496E-04   3.177262807792263E-04
   3.217227854051936E-04   3.257695598709311E-04   3.298672364931811E-04
   3.340164555422536E-04   3.382178653420664E-04   3.424721223714481E-04
   3.467798913667160E-04   3.511418454255384E-04   3.555586661121125E-04
   3.600310435636564E-04   3.645596765982456E-04   3.691452728240064E-04
   3.737885487496771E-04   3.784902298965691E-04   3.832510509119267E-04
   3.880717556837195E-04   3.929530974568762E-04   3.978958389509795E-04
   4.029007524794445E-04   4.079686200701924E-04   4.131002335878447E-04
   4.182963948574543E-04   4.235579157897907E-04   4.288856185082047E-04
   4.342803354770852E-04   4.397429096319341E-04   4.452741945110770E-04
   4.508750543890295E-04   4.565463644115429E-04   4.622890107323463E-04
   4.681038906516108E-04   4.739919127561546E-04   4.799539970614104E-04
   4.859910751551812E-04   4.921040903432015E-04   4.982939977965313E-04
   5.045617647008040E-04   5.109083704073500E-04   5.173348065862234E-04
   5.238420773811517E-04   5.304311995664357E-04   5.371032027058228E-04
   5.438591293133772E-04   5.507000350163773E-04   5.576269887202565E-04
   5.646410727756240E-04   5.717433831473841E-04   5.789350295859816E-04
   5.862171358008047E-04   5.935908396357648E-04   6.010572932470875E-04
   6.086176632833410E-04   6.162731310677245E-04   6.240248927826550E-04
   6.318741596566713E-04   6.398221581536916E-04   6.478701301646521E-04
   6.560193332015524E-04   6.642710405939476E-04   6.726265416879054E-04
   6.810871420474710E-04   6.896541636586645E-04   6.983289451360415E-04
   7.071128419318576E-04   7.160072265478579E-04   7.250134887497340E-04
   7.341330357842790E-04   7.433672925992701E-04   7.527177020661228E-04
   7.621857252053392E-04   7.717728414147976E-04   7.814805487009114E-04
   7.913103639126941E-04   8.012638229787718E-04   8.113424811473738E-04
   8.215479132293439E-04   8.318817138442087E-04   8.423454976693377E-04
   8.529408996922432E-04   8.636695754660473E-04   8.745332013681671E-04
   8.855334748622526E-04   8.966721147634167E-04   9.079508615068066E-04
   9.193714774195474E-04   9.309357469961103E-04   9.426454771771453E-04
   9.545024976318159E-04   9.665086610436925E-04   9.786658434002341E-04
   9.909759442859177E-04   1.003440887179053E-03   1.016062619752325E-03
   1.028843114177130E-03   1.041784367431723E-03   1.054888401613253E-03
   1.068157264253722E-03   1.081593028639914E-03   1.095197794137350E-03
   1.108973686518316E-03   1.122922858294026E-03   1.137047489050947E-03
   1.151349785791375E-03   1.165831983278271E-03   1.180496344384459E-03
   1.195345160446195E-03   1.210380751621198E-03   1.225605467251182E-03
   1.241021686228938E-03   1.256631817370046E-03   1.272438299789254E-03
   1.288443603281600E-03   1.304650228708318E-03   1.321060708387603E-03
   1.337677606490293E-03   1.354503519440523E-03   1.371541076321424E-03
   1.388792939285922E-03   1.406261803972706E-03   1.423950399927422E-03
   1.441861491029176E-03   1.459997875922392E-03   1.478362388454111E-03
   1.496957898116778E-03   1.515787310496610E-03   1.534853567727601E-03
   1.554159648951231E-03   1.573708570781974E-03   1.593503387778636E-03
   1.613547192921647E-03   1.633843118096339E-03   1.654394334582311E-03
   1.675204053548955E-03   1.696275526557195E-03   1.717612046067559E-03
   1.739216945954630E-03   1.761093602027969E-03   1.783245432559600E-03
   1.805675898818108E-03   1.828388505609484E-03   1.851386801824746E-03
   1.874674380994467E-03   1.898254881850275E-03   1.922131988893402E-03
   1.946309432970401E-03   1.970790991856099E-03   1.995580490843878E-03
   2.020681803343394E-03   2.046098851485791E-03   2.071835606736553E-03
   2.097896090516050E-03   2.124284374827891E-03   2.151004582895191E-03
   2.178060889804820E-03   2.205457523159782E-03   2.233198763739775E-03
   2.261288946170081E-03   2.289732459598852E-03   2.318533748382934E-03
   2.347697312782295E-03   2.377227709663204E-03   2.407129553210257E-03
   2.437407515647339E-03   2.468066327967688E-03   2.499110780673101E-03
   2.530545724522475E-03   2.562376071289741E-03   2.594606794531338E-03
   2.627242930363352E-03   2.660289578248402E-03   2.693751901792455E-03
   2.727635129551643E-03   2.761944555849239E-03   2.796685541602908E-03
   2.831863515162353E-03   2.867483973157514E-03   2.903552481357422E-03
   2.940074675539863E-03   2.977056262371988E-03   3.014503020301977E-03
   3.052420800461941E-03   3.090815527582177E-03   3.129693200916907E-03
   3.169059895181694E-03   3.208921761502605E-03   3.249285028377354E-03
   3.290156002648508E-03   3.331541070488947E-03   3.373446698399726E-03
   3.415879434220461E-03   3.458845908152453E-03   3.502352833794670E-03
   3.546407009192758E-03   3.591015317901255E-03   3.636184730059153E-03
   3.681922303478997E-03   3.728235184749689E-03   3.775130610353148E-03
   3.822615907795042E-03   3.870698496749701E-03   3.919385890219474E-03
   3.968685695708647E-03   4.018605616412123E-03   4.069153452419086E-03
   4.120337101931744E-03   4.172164562499471E-03   4.224643932268424E-03
   4.277783411246894E-03   4.331591302586594E-03   4.386076013880013E-03
   4.441246058474143E-03   4.497110056800694E-03   4.553676737723058E-03
   4.610954939900222E-03   4.668953613167806E-03   4.727681819936509E-03
   4.787148736608119E-03   4.847363655009350E-03   4.908335983843718E-03
   4.970075250161649E-03   5.032591100849114E-03   5.095893304134974E-03
   5.159991751117275E-03   5.224896457308777E-03   5.290617564201870E-03
   5.357165340853213E-03   5.424550185488301E-03   5.492782627126202E-03
   5.561873327224748E-03   5.631833081346392E-03   5.702672820845050E-03
   5.774403614574144E-03   5.847036670616124E-03   5.920583338033783E-03
   5.995055108643529E-03   6.070463618811035E-03   6.146820651269435E-03
   6.224138136960393E-03   6.302428156898366E-03   6.381702944058243E-03
   6.461974885286804E-03   6.543256523238181E-03   6.625560558333668E-03
   6.708899850746208E-03   6.793287422409789E-03   6.878736459054173E-03
   6.965260312265182E-03   7.052872501570909E-03   7.141586716554193E-03
   7.231416818991609E-03   7.322376845019424E-03   7.414481007326765E-03
   7.507743697376374E-03   7.602179487653327E-03   7.697803133941980E-03
   7.794629577631614E-03   7.892673948051052E-03   7.991951564832633E-03
   8.092477940305978E-03   8.194268781921771E-03   8.297339994706108E-03
   8.401707683745690E-03   8.507388156704253E-03   8.614397926370726E-03
   8.722753713239323E-03   8.832472448122195E-03   8.943571274794889E-03
   9.056067552675099E-03   9.169978859535136E-03   9.285322994248443E-03
   9.402117979570737E-03   9.520382064956095E-03   9.640133729408463E-03
   9.761391684369064E-03   9.884174876640053E-03   1.000850249134503E-02
   1.013439395492673E-02   1.026186893818247E-02   1.039094735933774E-02
   1.052164938715846E-02   1.065399544410238E-02   1.078800620951016E-02
   1.092370262283654E-02   1.106110588692219E-02   1.120023747130667E-02
   1.134111911558310E-02   1.148377283279502E-02   1.162822091287598E-02
   1.177448592613238E-02   1.192259072677012E-02   1.207255845646562E-02
   1.222441254798175E-02   1.237817672882925E-02   1.253387502497424E-02
   1.269153176459225E-02   1.285117158186960E-02   1.301281942085253E-02
   1.317650053934474E-02   1.334224051285403E-02   1.351006523858845E-02
   1.368000093950285E-02   1.385207416839622E-02   1.402631181206066E-02
   1.420274109548249E-02   1.438138958609620E-02   1.456228519809190E-02
   1.474545619677699E-02   1.493093120299269E-02   1.511873919758608E-02
   1.530890952593841E-02   1.550147190255039E-02   1.569645641568512E-02
   1.589389353206949E-02   1.609381410165463E-02   1.629624936243627E-02
   1.650123094533577E-02   1.670879087914250E-02   1.691896159551837E-02
   1.713177593406546E-02   1.734726714745711E-02   1.756546890663384E-02
   1.778641530606446E-02   1.801014086907338E-02   1.823668055323501E-02
   1.846606975583592E-02   1.869834431940567E-02   1.893354053731742E-02
   1.917169515945869E-02   1.941284539797376E-02   1.965702893307800E-02
   1.990428391894557E-02   2.015464898967106E-02   2.040816326530612E-02
   2.066486635797214E-02   2.092479837804958E-02   2.118799994044542E-02
   2.145451217093928E-02   2.172437671260937E-02   2.199763573233942E-02
   2.227433192740718E-02   2.255450853215608E-02   2.283820932475064E-02
   2.312547863401686E-02   2.341636134636883E-02   2.371090291282211E-02
   2.400914935609574E-02   2.431114727780324E-02   2.461694386573430E-02
   2.492658690122796E-02   2.524012476663847E-02   2.555760645289520E-02
   2.587908156715756E-02   2.620460034056615E-02   2.653421363609166E-02
   2.686797295648208E-02   2.720593045231028E-02   2.754813893012253E-02
   2.789465186068972E-02   2.824552338736228E-02   2.860080833453008E-02
   2.896056221618894E-02   2.932484124461480E-02   2.969370233914696E-02
   3.006720313508196E-02   3.044540199267899E-02   3.082835800627905E-02
   3.121613101353836E-02   3.160878160477823E-02   3.200637113245243E-02
   3.240896172073355E-02   3.281661627522008E-02   3.322939849276553E-02
   3.364737287143119E-02   3.407060472056415E-02   3.449916017100187E-02
   3.493310618540541E-02   3.537251056872238E-02   3.581744197878160E-02
   3.626796993702120E-02   3.672416483935121E-02   3.718609796715327E-02
   3.765384149841839E-02   3.812746851902495E-02   3.860705303415857E-02
   3.909266997987544E-02   3.958439523481133E-02   4.008230563203773E-02
   4.058647897106718E-02   4.109699403000974E-02   4.161393057788195E-02
   4.213736938707117E-02   4.266739224595627E-02   4.320408197168724E-02
   4.374752242312571E-02   4.429779851394781E-02   4.485499622591231E-02
   4.541920262229529E-02   4.599050586149405E-02   4.656899521080212E-02
   4.715476106035724E-02   4.774789493726515E-02   4.834848951990085E-02
   4.895663865238976E-02   4.957243735927120E-02   5.019598186034593E-02
   5.082736958571086E-02   5.146669919098264E-02   5.211407057271279E-02
   5.276958488399688E-02   5.343334455027963E-02   5.410545328535935E-02
   5.478601610759331E-02   5.547513935630705E-02   5.617293070841035E-02
   5.687949919522146E-02   5.759495521950407E-02   5.831941057271767E-02
   5.905297845248492E-02   5.979577348027969E-02   6.054791171933609E-02
   6.130951069278433E-02   6.208068940201358E-02   6.286156834526593E-02
   6.365226953646522E-02   6.445291652428099E-02   6.526363441143418E-02
   6.608454987424414E-02   6.691579118242191E-02   6.775748821911329E-02
   6.860977250119246E-02   6.947277719981261E-02   7.034663716121382E-02
   7.123148892779269E-02   7.212747075943823E-02   7.303472265513429E-02
   7.395338637483552E-02   7.488360546161728E-02   7.582552526410416E-02
   7.677929295918193E-02   7.774505757499311E-02   7.872297001422394E-02
   7.971318307768276E-02   8.071585148817505E-02   8.173113191468018E-02
   8.275918299683013E-02   8.380016536969818E-02   8.485424168889817E-02
   8.592157665599919E-02   8.700233704426168E-02   8.809669172469478E-02
   8.920481169244401E-02   9.032687009350894E-02   9.146304225179723E-02
   9.261350569652056E-02   9.377844018993245E-02   9.495802775541773E-02
   9.615245270593356E-02   9.736190167280821E-02   9.858656363490374E-02
   9.982662994814298E-02   1.010822943754105E-01   1.023537531168278E-01
   1.036412048404098E-01   1.049448507131080E-01   1.062648944322419E-01
   1.076015422573284E-01   1.089550030423098E-01   1.103254882681871E-01
   1.117132120760654E-01   1.131183913006127E-01   1.145412455039419E-01
   1.159819970099173E-01   1.174408709388925E-01   1.189180952428873E-01
   1.204139007412044E-01   1.219285211564964E-01   1.234621931512847E-01
   1.250151563649385E-01   1.265876534511198E-01   1.281799301156973E-01
   1.297922351551394E-01   1.314248204953891E-01   1.330779412312268E-01
   1.347518556661313E-01   1.364468253526382E-01   1.381631151332097E-01
   1.399009931816160E-01   1.416607310448375E-01   1.434426036854959E-01
   1.452468895248163E-01   1.470738704861319E-01   1.489238320389354E-01
   1.507970632434827E-01   1.526938567959609E-01   1.546145090742214E-01
   1.565593201840904E-01   1.585285940062608E-01   1.605226382437733E-01
   1.625417644700975E-01   1.645862881778138E-01   1.666565288279112E-01
   1.687528098997035E-01   1.708754589413728E-01   1.730248076211506E-01
   1.752011917791407E-01   1.774049514797960E-01   1.796364310650533E-01
   1.818959792081375E-01   1.841839489680435E-01   1.865006978447006E-01
   1.888465878348345E-01   1.912219854885293E-01   1.936272619665005E-01
   1.960627930980921E-01   1.985289594399977E-01   2.010261463357261E-01
   2.035547439758107E-01   2.061151474587766E-01   2.087077568528778E-01
   2.113329772586060E-01   2.139912188719912E-01   2.166828970486941E-01
   2.194084323689052E-01   2.221682507030643E-01   2.249627832784001E-01
   2.277924667463136E-01   2.306577432506039E-01   2.335590604965535E-01
   2.364968718208857E-01   2.394716362625962E-01   2.424838186346815E-01
   2.455338895967661E-01   2.486223257286423E-01   2.517496096047401E-01
   2.549162298695268E-01   2.581226813138617E-01   2.613694649523070E-01
   2.646570881014109E-01   2.679860644589802E-01   2.713569141843426E-01
   2.747701639796267E-01   2.782263471720564E-01   2.817260037972876E-01
   2.852696806837887E-01   2.888579315382818E-01   2.924913170322643E-01
   2.961704048896107E-01   2.998957699752845E-01   3.036679943851602E-01
   3.074876675369754E-01   3.113553862624323E-01   3.152717549004495E-01
   3.192373853915954E-01   3.232528973737027E-01   3.273189182786873E-01
   3.314360834305889E-01   3.356050361448380E-01   3.398264278287785E-01
   3.441009180834499E-01   3.484291748066502E-01   3.528118742972993E-01
   3.572497013611080E-01   3.617433494175846E-01   3.662935206083807E-01
   3.709009259070014E-01   3.755662852298994E-01   3.802903275489595E-01
   3.850737910054058E-01   3.899174230251361E-01   3.948219804355065E-01
   3.997882295835922E-01   4.048169464559251E-01   4.099089167997483E-01
   4.150649362457883E-01   4.202858104325721E-01   4.255723551323150E-01
   4.309253963783801E-01   4.363457705943539E-01   4.418343247247362E-01
   4.473919163672749E-01   4.530194139069728E-01   4.587176966517679E-01
   4.644876549699333E-01   4.703301904291959E-01   4.762462159376066E-01
   4.822366558861887E-01   4.883024462933704E-01   4.944445349512445E-01
   5.006638815736607E-01   5.069614579461805E-01   5.133382480779265E-01
   5.197952483553285E-01   5.263334676978176E-01   5.329539277154692E-01
   5.396576628686286E-01   5.464457206295542E-01   5.533191616460797E-01
   5.602790599073489E-01   5.673265029116263E-01   5.744625918362174E-01
   5.816884417095372E-01   5.890051815853272E-01   5.964139547190804E-01
   6.039159187466731E-01   6.115122458652454E-01   6.192041230163665E-01
   6.269927520714884E-01   6.348793500197482E-01   6.428651491581218E-01
   6.509513972839693E-01   6.591393578900148E-01   6.674303103617586E-01
   6.758255501773941E-01   6.843263891102238E-01   6.929341554336235E-01
   7.016501941285965E-01   7.104758670939194E-01   7.194125533589498E-01
   7.284616492991002E-01   7.376245688540191E-01   7.469027437485314E-01
   7.562976237163387E-01   7.658106767265511E-01   7.754433892130572E-01
   7.851972663067783E-01   7.950738320708576E-01   8.050746297387869E-01
   8.152012219555497E-01   8.254551910217843E-01   8.358381391410163E-01
   8.463516886700166E-01   8.569974823722859E-01   8.677771836747507E-01
   8.786924769276727E-01   8.897450676678267E-01   9.009366828850058E-01
   9.122690712918542E-01   9.237440035971176E-01   9.353632727823167E-01
   9.471286943818975E-01   9.590421067669255E-01   9.711053714323205E-01
   9.833203732877309E-01   9.956890209520503E-01   1.008213247051637E+00
   1.020895008522302E+00   1.033736286915075E+00   1.046739088705831E+00
   1.059905445608806E+00   1.073237414894050E+00   1.086737079708892E+00
   1.100406549403420E+00   1.114247959860087E+00   1.128263473827438E+00
   1.142455281258044E+00   1.156825599650691E+00   1.171376674396862E+00
   1.186110779131591E+00   1.201030216088724E+00   1.216137316460632E+00
   1.231434440762491E+00   1.246923979201089E+00   1.262608352048324E+00
   1.278490010019366E+00   1.294571434655579E+00   1.310855138712285E+00
   1.327343666551368E+00   1.344039594538851E+00   1.360945531447453E+00
   1.378064118864207E+00   1.395398031603229E+00   1.412949978123646E+00
   1.430722700952813E+00   1.448718977114835E+00   1.466941618564471E+00
   1.485393472626525E+00   1.504077422440732E+00   1.522996387412263E+00
   1.542153323667891E+00   1.561551224517875E+00   1.581193120923693E+00
   1.601082081971615E+00   1.621221215352272E+00   1.641613667846231E+00
   1.662262625815676E+00   1.683171315702308E+00   1.704343004531454E+00
   1.725781000422572E+00   1.747488653106136E+00   1.769469354447039E+00
   1.791726538974590E+00   1.814263684419150E+00   1.837084312255547E+00
   1.860191988253315E+00   1.883590323033834E+00   1.907282972634526E+00
   1.931273639080085E+00   1.955566070960957E+00   1.980164064019050E+00
   2.005071461740818E+00   2.030292155957836E+00   2.055830087454880E+00
   2.081689246585708E+00   2.107873673896548E+00   2.134387460757433E+00
   2.161234750001511E+00   2.188419736572338E+00   2.215946668179380E+00
   2.243819845961706E+00   2.272043625160048E+00   2.300622415797333E+00
   2.329560683367736E+00   2.358862949534442E+00   2.388533792836161E+00
   2.418577849402517E+00   2.448999813678481E+00   2.479804439157856E+00
   2.510996539126052E+00   2.542580987412152E+00   2.574562719150453E+00
   2.606946731551613E+00   2.639738084683448E+00   2.672941902261604E+00
   2.706563372450136E+00   2.740607748672153E+00   2.775080350430716E+00
   2.809986564139974E+00   2.845331843966840E+00   2.881121712683204E+00
   2.917361762528857E+00   2.954057656085329E+00   2.991215127160636E+00
   3.028839981685237E+00   3.066938098619204E+00   3.105515430870808E+00
   3.144578006226713E+00   3.184131928293778E+00   3.224183377452805E+00
   3.264738611824218E+00   3.305803968245885E+00   3.347385863263306E+00
   3.389490794132166E+00   3.432125339833580E+00   3.475296162102064E+00
   3.519010006466415E+00   3.563273703303764E+00   3.608094168906785E+00
   3.653478406564422E+00   3.699433507656150E+00   3.745966652760000E+00
   3.793085112774578E+00   3.840796250055112E+00   3.889107519563877E+00
   3.938026470035032E+00   3.987560745154101E+00   4.037718084752362E+00
   4.088506326016160E+00   4.139933404711528E+00   4.192007356424150E+00
   4.244736317814911E+00   4.298128527891321E+00   4.352192329294818E+00
   4.406936169604370E+00   4.462368602656412E+00   4.518498289881371E+00
   4.575334001657088E+00   4.632884618679145E+00   4.691159133348548E+00
   4.750166651176781E+00   4.809916392208543E+00   4.870417692462446E+00
   4.931680005389730E+00   4.993712903351437E+00   5.056526079114088E+00
   5.120129347364175E+00   5.184532646241781E+00   5.249746038893367E+00
   5.315779715044220E+00   5.382643992590597E+00   5.450349319211880E+00
   5.518906274003122E+00   5.588325569127971E+00   5.658618051492530E+00
   5.729794704440194E+00   5.801866649467774E+00   5.874845147963334E+00
   5.948741602965718E+00   6.023567560946374E+00   6.099334713613481E+00
   6.176054899738772E+00   6.253740107007441E+00   6.332402473891151E+00
   6.412054291544780E+00   6.492708005726899E+00   6.574376218744419E+00
   6.657071691421803E+00   6.740807345094876E+00   6.825596263629898E+00
   6.911451695467909E+00   6.998387055694783E+00   7.086415928137451E+00
   7.175552067486302E+00   7.265809401444471E+00   7.357202032904035E+00
   7.449744242149570E+00   7.543450489089576E+00   7.638335415515758E+00
   7.734413847390930E+00   7.831700797165555E+00   7.930211466123445E+00
   8.029961246757070E+00   8.130965725172571E+00   8.233240683525207E+00
   8.336802102485317E+00   8.441666163735281E+00   8.547849252498047E+00
   8.655367960097236E+00   8.764239086549672E+00   8.874479643190380E+00
   8.986106855330590E+00   9.099138164949338E+00   9.213591233418684E+00
   9.329483944263448E+00   9.446834405955501E+00   9.565660954743205E+00
   9.685982157516591E+00   9.807816814708355E+00   9.931183963231575E+00
   1.005610287945422E+01   1.018259308221106E+01   1.031067433585366E+01
   1.044036665333845E+01   1.057169029935392E+01   1.070466579348695E+01
   1.083931391342900E+01   1.097565569822280E+01   1.111371245154958E+01
   1.125350574505793E+01   1.139505742173441E+01   1.153838959931643E+01
   1.168352467374840E+01   1.183048532268095E+01   1.197929450901447E+01
   1.212997548448711E+01   1.228255179330780E+01   1.243704727583527E+01
   1.259348607230293E+01   1.275189262659104E+01   1.291229169004600E+01
   1.307470832534777E+01   1.323916791042610E+01   1.340569614242571E+01
   1.357431904172167E+01   1.374506295598509E+01   1.391795456429991E+01
   1.409302088133172E+01   1.427028926154869E+01   1.444978740349591E+01
   1.463154335412326E+01   1.481558551316778E+01   1.500194263759130E+01
   1.519064384607361E+01   1.538171862356248E+01   1.557519682588065E+01
   1.577110868439082E+01   1.596948481071952E+01   1.617035620154004E+01
   1.637375424341590E+01   1.657971071770498E+01   1.678825780552535E+01
   1.699942809278385E+01   1.721325457526742E+01   1.742977066379901E+01
   1.764901018945800E+01   1.787100740886624E+01   1.809579700954101E+01
   1.832341411531466E+01   1.855389429182311E+01   1.878727355206288E+01
   1.902358836201813E+01   1.926287564635877E+01   1.950517279420975E+01
   1.975051766499340E+01   1.999894859434498E+01   2.025050440010258E+01
   2.050522438837269E+01   2.076314835967166E+01   2.102431661514477E+01
   2.128876996286335E+01   2.155654972420092E+01   2.182769774029008E+01
   2.210225637855992E+01   2.238026853935630E+01   2.266177766264500E+01
   2.294682773479920E+01   2.323546329547268E+01   2.352772944455895E+01
   2.382367184923848E+01   2.412333675111412E+01   2.442677097343640E+01
   2.473402192841997E+01   2.504513762465157E+01   2.536016667459175E+01