<UPF version="2.0.1">
  <PP_INFO>
    Generated using "atomic" code by A. Dal Corso  v.7.2
    Author: ADC
    Generation date: 20Sep2023
    Pseudopotential type: USPP
    Element: Pd
    Functional: PBE
    Suggested minimum cutoff for wavefunctions:  32. Ry
    Suggested minimum cutoff for charge density: 138. Ry
    The Pseudo was generated with a Scalar-Relativistic Calculation
    Local Potential by smoothing AE potential with Bessel fncs, cutoff radius:   2.2000
    Valence configuration: 
    nl pn  l   occ       Rcut    Rcut US       E pseu
    5S  1  0  0.50      2.100      2.300    -0.281388
    5P  2  1  0.00      2.200      2.600    -0.041203
    4D  3  2  9.50      1.700      1.900    -0.390480
    Generation configuration:
    5S  1  0  0.50      2.100      2.300    -0.281387
    5S  1  0  0.00      2.100      2.300     2.000000
    5P  2  1  0.00      2.200      2.600    -0.041203
    5P  2  1  0.00      2.200      2.600     6.300000
    4D  3  2  9.50      1.700      1.900    -0.390479
    4D  3  2  0.00      1.700      1.900     4.300000
    Pseudization used: troullier-martins
    <PP_INPUTFILE>
@input
title='Pd',
zed=46.,
rel=1,
config='[Kr] 4d9.5 5s0.5 5p0.0',
iswitch=3,
dft='PBE'
/
@inputp
pseudotype=3,
file_pseudopw='Pd.pbe-n-rrkjus_psl.0.3.0.UPF',
author='ADC',
lloc=-1,
rcloc=2.2,
which_augfun='PSQ',
rmatch_augfun=1.75,
nlcc=.true.,
tm=.true.
/
6
5S  1  0  0.50  0.00  2.10  2.30  0.0
5S  1  0  0.00  2.00  2.10  2.30  0.0
5P  2  1  0.00  0.00  2.20  2.60  0.0
5P  2  1  0.00  6.30  2.20  2.60  0.0
4D  3  2  9.50  0.00  1.70  1.90  0.0
4D  3  2  0.00  4.30  1.70  1.90  0.0
    </PP_INPUTFILE>
  </PP_INFO>
    <!-- END OF HUMAN READABLE SECTION -->
  <PP_HEADER generated="Generated using 'atomic' code by A. Dal Corso  v.7.2" author="ADC" date="20Sep2023" comment="" element="Pd" pseudo_type="USPP" relativistic="scalar" is_ultrasoft="true" is_paw="false" is_coulomb="false" has_so="false" has_wfc="false" has_gipaw="false" paw_as_gipaw="false" core_correction="true" functional="PBE" z_valence="10.000000000000000" total_psenergy="-78.237777679252659" wfc_cutoff="31.951705440198449" rho_cutoff="137.56387575662160" l_max="2" l_max_rho="4" l_local="-1" mesh_size="1235" number_of_wfc="3" number_of_proj="6"/>
  <PP_MESH mesh="1235" dx="1.2500000000000001E-002" xmin="-7.0000000000000000" rmax="100.00000000000000" zmesh="46.000000000000000">
    <PP_R>
   1.982352099031557E-05   2.007287018845700E-05   2.032535581340396E-05
   2.058101731654900E-05   2.083989464552217E-05   2.110202825043280E-05
   2.136745909018997E-05   2.163622863890242E-05   2.190837889235892E-05
   2.218395237459032E-05   2.246299214451385E-05   2.274554180266127E-05
   2.303164549799152E-05   2.332134793478906E-05   2.361469437964908E-05
   2.391173066855040E-05   2.421250321401746E-05   2.451705901237244E-05
   2.482544565107843E-05   2.513771131617517E-05   2.545390479980814E-05
   2.577407550785245E-05   2.609827346763263E-05   2.642654933573945E-05
   2.675895440594524E-05   2.709554061721847E-05   2.743636056183945E-05
   2.778146749361792E-05   2.813091533621409E-05   2.848475869156435E-05
   2.884305284841286E-05   2.920585379095058E-05   2.957321820756291E-05
   2.994520349968733E-05   3.032186779078258E-05   3.070326993541047E-05
   3.108946952843205E-05   3.148052691431947E-05   3.187650319658485E-05
   3.227746024732798E-05   3.268346071690375E-05   3.309456804371155E-05
   3.351084646410762E-05   3.393236102244200E-05   3.435917758122211E-05
   3.479136283140357E-05   3.522898430281101E-05   3.567211037468969E-05
   3.612081028638986E-05   3.657515414818568E-05   3.703521295222987E-05
   3.750105858364657E-05   3.797276383176347E-05   3.845040240148523E-05
   3.893404892481021E-05   3.942377897249163E-05   3.991966906584581E-05
   4.042179668870872E-05   4.093024029954298E-05   4.144507934369732E-05
   4.196639426581976E-05   4.249426652242754E-05   4.302877859463471E-05
   4.357001400103998E-05   4.411805731077682E-05   4.467299415672737E-05
   4.523491124890281E-05   4.580389638799205E-05   4.638003847908061E-05
   4.696342754554249E-05   4.755415474310620E-05   4.815231237409820E-05
   4.875799390186529E-05   4.937129396537841E-05   4.999230839402035E-05
   5.062113422255899E-05   5.125786970630941E-05   5.190261433648638E-05
   5.255546885575008E-05   5.321653527394746E-05   5.388591688405127E-05
   5.456371827829997E-05   5.525004536454040E-05   5.594500538277609E-05
   5.664870692192388E-05   5.736125993678090E-05   5.808277576520545E-05
   5.881336714551362E-05   5.955314823409497E-05   6.030223462324975E-05
   6.106074335925028E-05   6.182879296062973E-05   6.260650343670094E-05
   6.339399630630800E-05   6.419139461681406E-05   6.499882296332740E-05
   6.581640750816990E-05   6.664427600059007E-05   6.748255779672410E-05
   6.833138387980826E-05   6.919088688064493E-05   7.006120109832666E-05
   7.094246252122061E-05   7.183480884821701E-05   7.273837951024504E-05
   7.365331569205895E-05   7.457976035429857E-05   7.551785825582725E-05
   7.646775597635062E-05   7.742960193932021E-05   7.840354643512458E-05
   7.938974164457268E-05   8.038834166267244E-05   8.139950252270827E-05
   8.242338222062191E-05   8.346014073969921E-05   8.450994007556805E-05
   8.557294426151051E-05   8.664931939409328E-05   8.773923365912083E-05
   8.884285735791450E-05   8.996036293392254E-05   9.109192499966477E-05
   9.223772036401610E-05   9.339792805983348E-05   9.457272937192976E-05
   9.576230786540013E-05   9.696684941430439E-05   9.818654223071013E-05
   9.942157689410159E-05   1.006721463811575E-04   1.019384460959046E-04
   1.032206739002495E-04   1.045190301448953E-04   1.058337177006470E-04
   1.071649419901098E-04   1.085129110197873E-04   1.098778354125829E-04
   1.112599284407098E-04   1.126594060590158E-04   1.140764869387257E-04
   1.155113925016103E-04   1.169643469545831E-04   1.184355773247331E-04
   1.199253134947994E-04   1.214337882390891E-04   1.229612372598502E-04
   1.245078992240997E-04   1.260740158009161E-04   1.276598316992011E-04
   1.292655947059151E-04   1.308915557247947E-04   1.325379688155574E-04
   1.342050912335979E-04   1.358931834701861E-04   1.376025092931684E-04
   1.393333357881822E-04   1.410859334003888E-04   1.428605759767307E-04
   1.446575408087212E-04   1.464771086757710E-04   1.483195638890614E-04
   1.501851943359681E-04   1.520742915250437E-04   1.539871506315679E-04
   1.559240705436674E-04   1.578853539090194E-04   1.598713071821399E-04
   1.618822406722682E-04   1.639184685918538E-04   1.659803091056513E-04
   1.680680843804363E-04   1.701821206353429E-04   1.723227481928368E-04
   1.744903015303296E-04   1.766851193324394E-04   1.789075445439137E-04
   1.811579244232132E-04   1.834366105967724E-04   1.857439591139423E-04
   1.880803305026225E-04   1.904460898255963E-04   1.928416067375708E-04
   1.952672555429373E-04   1.977234152542571E-04   2.002104696514813E-04
   2.027288073419202E-04   2.052788218209611E-04   2.078609115335545E-04
   2.104754799364716E-04   2.131229355613441E-04   2.158036920785003E-04
   2.185181683615997E-04   2.212667885530841E-04   2.240499821304511E-04
   2.268681839733588E-04   2.297218344315794E-04   2.326113793938028E-04
   2.355372703573076E-04   2.384999644985106E-04   2.414999247443979E-04
   2.445376198448623E-04   2.476135244459430E-04   2.507281191639917E-04
   2.538818906607707E-04   2.570753317194917E-04   2.603089413218179E-04
   2.635832247258282E-04   2.668986935449660E-04   2.702558658279803E-04
   2.736552661398695E-04   2.770974256438493E-04   2.805828821843451E-04
   2.841121803710322E-04   2.876858716639335E-04   2.913045144595832E-04
   2.949686741782812E-04   2.986789233524379E-04   3.024358417160352E-04
   3.062400162952116E-04   3.100920414999838E-04   3.139925192171278E-04
   3.179420589042222E-04   3.219412776848783E-04   3.259908004451677E-04
   3.300912599312597E-04   3.342432968482920E-04   3.384475599604802E-04
   3.427047061924888E-04   3.470154007320788E-04   3.513803171340407E-04
   3.558001374254441E-04   3.602755522122012E-04   3.648072607869774E-04
   3.693959712384583E-04   3.740424005619866E-04   3.787472747715981E-04
   3.835113290134601E-04   3.883353076807399E-04   3.932199645299198E-04
   3.981660627985691E-04   4.031743753246062E-04   4.082456846670524E-04
   4.133807832283099E-04   4.185804733779767E-04   4.238455675782173E-04
   4.291768885107126E-04   4.345752692052050E-04   4.400415531696607E-04
   4.455765945220708E-04   4.511812581239074E-04   4.568564197152615E-04
   4.626029660516777E-04   4.684217950427124E-04   4.743138158922342E-04
   4.802799492404879E-04   4.863211273079478E-04   4.924382940409776E-04
   4.986324052593246E-04   5.049044288054690E-04   5.112553446958502E-04
   5.176861452739974E-04   5.241978353655842E-04   5.307914324354355E-04
   5.374679667465087E-04   5.442284815208728E-04   5.510740331027162E-04
   5.580056911234008E-04   5.650245386685946E-04   5.721316724475068E-04
   5.793282029642497E-04   5.866152546913584E-04   5.939939662454906E-04
   6.014654905653387E-04   6.090309950917787E-04   6.166916619502848E-04
   6.244486881356398E-04   6.323032856989668E-04   6.402566819371150E-04
   6.483101195844284E-04   6.564648570069239E-04   6.647221683989151E-04
   6.730833439821064E-04   6.815496902071932E-04   6.901225299579990E-04
   6.988032027581754E-04   7.075930649805093E-04   7.164934900588558E-04
   7.255058687027409E-04   7.346316091146643E-04   7.438721372101311E-04
   7.532288968404570E-04   7.627033500183704E-04   7.722969771464558E-04
   7.820112772484710E-04   7.918477682035703E-04   8.018079869834785E-04
   8.118934898926440E-04   8.221058528114149E-04   8.324466714422753E-04
   8.429175615591742E-04   8.535201592599960E-04   8.642561212222025E-04
   8.751271249616924E-04   8.861348690949179E-04   8.972810736042945E-04
   9.085674801069547E-04   9.199958521268765E-04   9.315679753704388E-04
   9.432856580054430E-04   9.551507309436396E-04   9.671650481268157E-04
   9.793304868164743E-04   9.916489478871610E-04   1.004122356123481E-03
   1.016752660520847E-03   1.029541834590020E-03   1.042491876665467E-03
   1.055604810217608E-03   1.068882684168991E-03   1.082327573214433E-03
   1.095941578145204E-03   1.109726826177270E-03   1.123685471283683E-03
   1.137819694531139E-03   1.152131704420778E-03   1.166623737233264E-03
   1.181298057378206E-03   1.196156957747984E-03   1.211202760076009E-03
   1.226437815299508E-03   1.241864503926854E-03   1.257485236409532E-03
   1.273302453518773E-03   1.289318626726929E-03   1.305536258593651E-03
   1.321957883156913E-03   1.338586066328962E-03   1.355423406297249E-03
   1.372472533930399E-03   1.389736113189295E-03   1.407216841543316E-03
   1.424917450391834E-03   1.442840705490992E-03   1.460989407385864E-03
   1.479366391848048E-03   1.497974530318752E-03   1.516816730357471E-03
   1.535895936096296E-03   1.555215128699940E-03   1.574777326831553E-03
   1.594585587124394E-03   1.614643004659433E-03   1.634952713448966E-03
   1.655517886926311E-03   1.676341738441668E-03   1.697427521764199E-03
   1.718778531590450E-03   1.740398104059143E-03   1.762289617272462E-03
   1.784456491823887E-03   1.806902191332664E-03   1.829630222985009E-03
   1.852644138082106E-03   1.875947532595011E-03   1.899544047726530E-03
   1.923437370480159E-03   1.947631234236189E-03   1.972129419335055E-03
   1.996935753668020E-03   2.022054113275293E-03   2.047488422951667E-03
   2.073242656859775E-03   2.099320839151062E-03   2.125727044594566E-03
   2.152465399213615E-03   2.179540080930516E-03   2.206955320219371E-03
   2.234715400767097E-03   2.262824660142753E-03   2.291287490475312E-03
   2.320108339139918E-03   2.349291709452811E-03   2.378842161374978E-03
   2.408764312224651E-03   2.439062837398777E-03   2.469742471103560E-03
   2.500808007094183E-03   2.532264299423848E-03   2.564116263202230E-03
   2.596368875363470E-03   2.629027175443841E-03   2.662096266369173E-03
   2.695581315252202E-03   2.729487554199942E-03   2.763820281131208E-03
   2.798584860604440E-03   2.833786724655906E-03   2.869431373648485E-03
   2.905524377131098E-03   2.942071374708972E-03   2.979078076924836E-03
   3.016550266151202E-03   3.054493797493874E-03   3.092914599706819E-03
   3.131818676118549E-03   3.171212105570161E-03   3.211101043365149E-03
   3.251491722231198E-03   3.292390453294058E-03   3.333803627063662E-03
   3.375737714432674E-03   3.418199267687558E-03   3.461194921532399E-03
   3.504731394125584E-03   3.548815488129531E-03   3.593454091773621E-03
   3.638654179930490E-03   3.684422815205874E-03   3.730767149042149E-03
   3.777694422835764E-03   3.825211969068729E-03   3.873327212454315E-03
   3.922047671097192E-03   3.971380957668147E-03   4.021334780593571E-03
   4.071916945259936E-03   4.123135355233377E-03   4.174998013494657E-03
   4.227513023689644E-03   4.280688591395523E-03   4.334533025402938E-03
   4.389054739014249E-03   4.444262251358132E-03   4.500164188720713E-03
   4.556769285893431E-03   4.614086387537893E-03   4.672124449567840E-03
   4.730892540548544E-03   4.790399843113783E-03   4.850655655400648E-03
   4.911669392502410E-03   4.973450587939620E-03   5.036008895149759E-03
   5.099354088995605E-03   5.163496067292568E-03   5.228444852355265E-03
   5.294210592563495E-03   5.360803563947970E-03   5.428234171795950E-03
   5.496512952277097E-03   5.565650574089785E-03   5.635657840128079E-03
   5.706545689169726E-03   5.778325197585365E-03   5.851007581069215E-03
   5.924604196391579E-03   5.999126543173331E-03   6.074586265682771E-03
   6.150995154655066E-03   6.228365149134567E-03   6.306708338340334E-03
   6.386036963555064E-03   6.466363420037841E-03   6.547700258960920E-03
   6.630060189370854E-03   6.713456080174346E-03   6.797900962148998E-03
   6.883408029979421E-03   6.969990644318932E-03   7.057662333877168E-03
   7.146436797534004E-03   7.236327906479992E-03   7.327349706383793E-03
   7.419516419586825E-03   7.512842447325533E-03   7.607342371981640E-03
   7.703030959360627E-03   7.799923160998951E-03   7.898034116500250E-03
   7.997379155900920E-03   8.097973802065500E-03   8.199833773112109E-03
   8.302974984868459E-03   8.407413553358728E-03   8.513165797321717E-03
   8.620248240760716E-03   8.728677615525366E-03   8.838470863926072E-03
   8.949645141381277E-03   9.062217819098009E-03   9.176206486786208E-03
   9.291628955407106E-03   9.408503259956250E-03   9.526847662281512E-03
   9.646680653936519E-03   9.768020959070036E-03   9.890887537351602E-03
   1.001529958693404E-02   1.014127654745323E-02   1.026883810306554E-02
   1.039800418552357E-02   1.052879497729049E-02   1.066123091469362E-02
   1.079533269111761E-02   1.093112126023785E-02   1.106861783929455E-02
   1.120784391240792E-02   1.134882123393514E-02   1.149157183186952E-02
   1.163611801128240E-02   1.178248235780842E-02   1.193068774117449E-02
   1.208075731877330E-02   1.223271453928165E-02   1.238658314632441E-02
   1.254238718218450E-02   1.270015099155948E-02   1.285989922536555E-02
   1.302165684458926E-02   1.318544912418768E-02   1.335130165703778E-02
   1.351924035793522E-02   1.368929146764370E-02   1.386148155699508E-02
   1.403583753104113E-02   1.421238663325755E-02   1.439115644980074E-02
   1.457217491381825E-02   1.475547030981337E-02   1.494107127806461E-02
   1.512900681910092E-02   1.531930629823290E-02   1.551199945014137E-02
   1.570711638352332E-02   1.590468758579656E-02   1.610474392786343E-02
   1.630731666893439E-02   1.651243746141237E-02   1.672013835583850E-02
   1.693045180590011E-02   1.714341067350167E-02   1.735904823389951E-02
   1.757739818090115E-02   1.779849463213005E-02   1.802237213435653E-02
   1.824906566889582E-02   1.847861065707388E-02   1.871104296576214E-02
   1.894639891298171E-02   1.918471527357816E-02   1.942602928496773E-02
   1.967037865295565E-02   1.991780155762779E-02   2.016833665931638E-02
   2.042202310464078E-02   2.067890053262422E-02   2.093900908088744E-02
   2.120238939192029E-02   2.146908261943222E-02   2.173913043478261E-02
   2.201257503349206E-02   2.228945914183542E-02   2.256982602351795E-02
   2.285371948643532E-02   2.314118388951868E-02   2.343226414966591E-02
   2.372700574875983E-02   2.402545474077496E-02   2.432765775897351E-02
   2.463366202319188E-02   2.494351534721897E-02   2.525726614626703E-02
   2.557496344453676E-02   2.589665688287737E-02   2.622239672654306E-02
   2.655223387304717E-02   2.688621986011490E-02   2.722440687373620E-02
   2.756684775632001E-02   2.791359601495090E-02   2.826470582974981E-02
   2.862023206233961E-02   2.898023026441747E-02   2.934475668643487E-02
   2.971386828638688E-02   3.008762273871199E-02   3.046607844330378E-02
   3.084929453463604E-02   3.123733089100273E-02   3.163024814387394E-02
   3.202810768736991E-02   3.243097168785371E-02   3.283890309364507E-02
   3.325196564485609E-02   3.367022388335072E-02   3.409374316282977E-02
   3.452258965904226E-02   3.495683038012574E-02   3.539653317707633E-02
   3.584176675435061E-02   3.629260068060094E-02   3.674910539954548E-02
   3.721135224097533E-02   3.767941343189992E-02   3.815336210783258E-02
   3.863327232421823E-02   3.911921906800455E-02   3.961127826935891E-02
   4.010952681353263E-02   4.061404255287440E-02   4.112490431899500E-02
   4.164219193508471E-02   4.216598622838598E-02   4.269636904282279E-02
   4.323342325178896E-02   4.377723277109733E-02   4.432788257209164E-02
   4.488545869492364E-02   4.545004826199689E-02   4.602173949157989E-02
   4.660062171159043E-02   4.718678537355311E-02   4.778032206673268E-02
   4.838132453244498E-02   4.898988667854801E-02   4.960610359411530E-02
   5.023007156429358E-02   5.086188808534765E-02   5.150165187989438E-02
   5.214946291232822E-02   5.280542240444106E-02   5.346963285123806E-02
   5.414219803695287E-02   5.482322305126412E-02   5.551281430571580E-02
   5.621107955034450E-02   5.691812789051526E-02   5.763406980396973E-02
   5.835901715808853E-02   5.909308322737054E-02   5.983638271113276E-02
   6.058903175143156E-02   6.135114795121086E-02   6.212285039267752E-02
   6.290425965590785E-02   6.369549783768924E-02   6.449668857059714E-02
   6.530795704231374E-02   6.612943001518838E-02   6.696123584604416E-02
   6.780350450623468E-02   6.865636760195150E-02   6.951995839478857E-02
   7.039441182256442E-02   7.127986452040594E-02   7.217645484209893E-02
   7.308432288170501E-02   7.400361049545257E-02   7.493446132390168E-02
   7.587702081438785E-02   7.683143624374943E-02   7.779785674133870E-02
   7.877643331232480E-02   7.976731886128798E-02   8.077066821611095E-02
   8.178663815217205E-02   8.281538741684048E-02   8.385707675428203E-02
   8.491186893057510E-02   8.597992875914298E-02   8.706142312650715E-02
   8.815652101836254E-02   8.926539354598285E-02   9.038821397295675E-02
   9.152515774226000E-02   9.267640250367004E-02   9.384212814152271E-02
   9.502251680282080E-02   9.621775292569430E-02   9.742802326821880E-02
   9.865351693759798E-02   9.989442541971065E-02   1.011509426090319E-01
   1.024232648389292E-01   1.037115909123392E-01   1.050161221328322E-01
   1.063370623360654E-01   1.076746179216329E-01   1.090289978853166E-01
   1.104004138517409E-01   1.117890801074411E-01   1.131952136343446E-01
   1.146190341436759E-01   1.160607641102865E-01   1.175206288074167E-01
   1.189988563418958E-01   1.204956776897831E-01   1.220113267324599E-01
   1.235460402931728E-01   1.251000581740376E-01   1.266736231935104E-01
   1.282669812243265E-01   1.298803812319200E-01   1.315140753133250E-01
   1.331683187365649E-01   1.348433699805407E-01   1.365394907754167E-01
   1.382569461435180E-01   1.399960044407405E-01   1.417569373984807E-01
   1.435400201660964E-01   1.453455313538972E-01   1.471737530766798E-01
   1.490249709978083E-01   1.508994743738486E-01   1.527975560997674E-01
   1.547195127546956E-01   1.566656446482710E-01   1.586362558675617E-01
   1.606316543245793E-01   1.626521518043932E-01   1.646980640138445E-01
   1.667697106308789E-01   1.688674153544952E-01   1.709915059553237E-01
   1.731423143268430E-01   1.753201765372364E-01   1.775254328819054E-01
   1.797584279366407E-01   1.820195106114623E-01   1.843090342051387E-01
   1.866273564603891E-01   1.889748396197826E-01   1.913518504823394E-01
   1.937587604608421E-01   1.961959456398724E-01   1.986637868345723E-01
   2.011626696501498E-01   2.036929845421290E-01   2.062551268773593E-01
   2.088494969957937E-01   2.114765002730410E-01   2.141365471837083E-01
   2.168300533655375E-01   2.195574396843490E-01   2.223191322998046E-01
   2.251155627319934E-01   2.279471679288602E-01   2.308143903344785E-01
   2.337176779581816E-01   2.366574844445684E-01   2.396342691443827E-01
   2.426484971862905E-01   2.457006395495563E-01   2.487911731376331E-01
   2.519205808526827E-01   2.550893516710264E-01   2.582979807195521E-01
   2.615469693530769E-01   2.648368252326842E-01   2.681680624050493E-01
   2.715412013827568E-01   2.749567692256353E-01   2.784152996231096E-01
   2.819173329775899E-01   2.854634164889137E-01   2.890541042398432E-01
   2.926899572826459E-01   2.963715437267557E-01   3.000994388275455E-01
   3.038742250762097E-01   3.076964922907784E-01   3.115668377082815E-01
   3.154858660780636E-01   3.194541897562813E-01   3.234724288015837E-01
   3.275412110719955E-01   3.316611723230257E-01   3.358329563070006E-01
   3.400572148736559E-01   3.443346080719877E-01   3.486658042533843E-01
   3.530514801760621E-01   3.574923211108057E-01   3.619890209480466E-01
   3.665422823062837E-01   3.711528166418666E-01   3.758213443601666E-01
   3.805485949281368E-01   3.853353069882966E-01   3.901822284741447E-01
   3.950901167270232E-01   4.000597386144581E-01   4.050918706499786E-01
   4.101872991144540E-01   4.153468201789493E-01   4.205712400291265E-01
   4.258613749912178E-01   4.312180516595724E-01   4.366421070258188E-01
   4.421343886096441E-01   4.476957545912182E-01   4.533270739452920E-01
   4.590292265769702E-01   4.648031034592031E-01   4.706496067720016E-01
   4.765696500434016E-01   4.825641582922101E-01   4.886340681725354E-01
   4.947803281201463E-01   5.010038985006652E-01   5.073057517596243E-01
   5.136868725744185E-01   5.201482580081555E-01   5.266909176654561E-01
   5.333158738502037E-01   5.400241617252793E-01   5.468168294743130E-01
   5.536949384654586E-01   5.606595634172404E-01   5.677117925664781E-01
   5.748527278383218E-01   5.820834850184382E-01   5.894051939273458E-01
   5.968189985969586E-01   6.043260574493411E-01   6.119275434777098E-01
   6.196246444297243E-01   6.274185629930660E-01   6.353105169833683E-01
   6.433017395344995E-01   6.513934792912397E-01   6.595870006043905E-01
   6.678835837283247E-01   6.762845250210361E-01   6.847911371466949E-01
   6.934047492807500E-01   7.021267073176244E-01   7.109583740810038E-01
   7.199011295367894E-01   7.289563710087166E-01   7.381255133966860E-01
   7.474099893978527E-01   7.568112497304793E-01   7.663307633606204E-01
   7.759700177316502E-01   7.857305189966725E-01   7.956137922538704E-01
   8.056213817847955E-01   8.157548512956739E-01   8.260157841617348E-01
   8.364057836746117E-01   8.469264732928700E-01   8.575794968956643E-01
   8.683665190396073E-01   8.792892252188572E-01   8.903493221284740E-01
   9.015485379311047E-01   9.128886225270002E-01   9.243713478274518E-01
   9.359985080316513E-01   9.477719199070328E-01   9.596934230731584E-01
   9.717648802891491E-01   9.839881777447558E-01   9.963652253550764E-01
   1.008897957058978E+00   1.021588331121290E+00   1.034438330438776E+00
   1.047449962849974E+00   1.060625261448923E+00   1.073966284902830E+00
   1.087475117773757E+00   1.101153870844319E+00   1.115004681447515E+00
   1.129029713800685E+00   1.143231159343662E+00   1.157611237081211E+00
   1.172172193929730E+00   1.186916305068353E+00   1.201845874294445E+00
   1.216963234383569E+00   1.232270747453997E+00   1.247770805335788E+00
   1.263465829944521E+00   1.279358273659727E+00   1.295450619708065E+00
   1.311745382551349E+00   1.328245108279421E+00   1.344952375007997E+00
   1.361869793281498E+00   1.379000006480942E+00   1.396345691236999E+00
   1.413909557848196E+00   1.431694350704428E+00   1.449702848715765E+00
   1.467937865746656E+00   1.486402251055614E+00   1.505098889740405E+00
   1.524030703188866E+00   1.543200649535368E+00   1.562611724123023E+00
   1.582266959971734E+00   1.602169428252084E+00   1.622322238765237E+00
   1.642728540428841E+00   1.663391521769041E+00   1.684314411418717E+00
   1.705500478621938E+00   1.726953033744812E+00   1.748675428792724E+00
   1.770671057934090E+00   1.792943358030720E+00   1.815495809174810E+00
   1.838331935232739E+00   1.861455304395667E+00   1.884869529737063E+00
   1.908578269777281E+00   1.932585229055181E+00   1.956894158706996E+00
   1.981508857052444E+00   2.006433170188215E+00   2.031670992588951E+00
   2.057226267715742E+00   2.083102988632323E+00   2.109305198628988E+00
   2.135836991854349E+00   2.162702513955086E+00   2.189905962723677E+00
   2.217451588754341E+00   2.245343696107192E+00   2.273586642980744E+00
   2.302184842392914E+00   2.331142762870534E+00   2.360464929147600E+00
   2.390155922872252E+00   2.420220383322660E+00   2.450663008131942E+00
   2.481488554022153E+00   2.512701837547558E+00   2.544307735847215E+00
   2.576311187407029E+00   2.608717192831425E+00   2.641530815624673E+00
   2.674757182982099E+00   2.708401486591205E+00   2.742468983442873E+00
   2.776964996652805E+00   2.811894916293238E+00   2.847264200235187E+00
   2.883078375001232E+00   2.919343036629033E+00   2.956063851545764E+00
   2.993246557453451E+00   3.030896964225547E+00   3.069020954814718E+00
   3.107624486172044E+00   3.146713590177851E+00   3.186294374584156E+00
   3.226373023969057E+00   3.266955800703065E+00   3.308049045927600E+00
   3.349659180545846E+00   3.391792706225981E+00   3.434456206417118E+00
   3.477656347377971E+00   3.521399879218442E+00   3.565693636954391E+00
   3.610544541575567E+00   3.655959601127075E+00   3.701945911804373E+00
   3.748510659062051E+00   3.795661118736618E+00   3.843404658183314E+00
   3.891748737427319E+00   3.940700910329377E+00   3.990268825766087E+00
   4.040460228825094E+00   4.091282962015228E+00   4.142744966491956E+00
   4.194854283298187E+00   4.247619054620673E+00   4.301047525062299E+00
   4.355148042930257E+00   4.409929061540541E+00   4.465399140538769E+00
   4.521566947237623E+00   4.578441257971190E+00   4.636030959466218E+00
   4.694345050230742E+00   4.753392641960091E+00   4.813182960960591E+00
   4.873725349591245E+00   4.935029267723437E+00   4.997104294219105E+00
   5.059960128427441E+00   5.123606591700405E+00   5.188053628927388E+00
   5.253311310089060E+00   5.319389831830878E+00   5.386299519056311E+00
   5.454050826540100E+00   5.522654340561897E+00   5.592120780560325E+00
   5.662461000807974E+00   5.733685992107375E+00   5.805806883508308E+00
   5.878834944046804E+00   5.952781584505882E+00   6.027658359198565E+00
   6.103476967773251E+00   6.180249257041759E+00   6.257987222830508E+00
   6.336703011854786E+00   6.416408923616789E+00   6.497117412327404E+00
   6.578841088852171E+00   6.661592722681839E+00   6.745385243927530E+00
   6.830231745341178E+00   6.916145484361262E+00   7.003139885184273E+00
   7.091228540862355E+00   7.180425215427150E+00   7.270743846040545E+00
   7.362198545172339E+00   7.454803602805312E+00   7.548573488668154E+00
   7.643522854496278E+00   7.739666536321285E+00   7.837019556789080E+00
   7.935597127507150E+00   8.035414651421505E+00   8.136487725223308E+00
   8.238832141785990E+00   8.342463892632875E+00   8.447399170435844E+00
   8.553654371545575E+00   8.661246098553390E+00   8.770191162885546E+00
   8.880506587430011E+00   8.992209609196278E+00   9.105317682008788E+00
   9.219848479234013E+00   9.335819896542041E+00   9.453250054702796E+00
   9.572157302417368E+00   9.692560219185165E+00   9.814477618206860E+00
   9.937928549324107E+00   1.006293230199608E+01   1.018950840831341E+01
   1.031767664605028E+01   1.044745704175455E+01   1.057886987387711E+01
   1.071193567594037E+01   1.084667523974657E+01   1.098310961862673E+01
   1.112126013073009E+01   1.126114836235526E+01   1.140279617132305E+01
   1.154622569039176E+01   1.169145933071560E+01   1.183851978534629E+01
   1.198743003277910E+01   1.213821334054317E+01   1.229089326883707E+01
   1.244549367421026E+01   1.260203871329057E+01   1.276055284655889E+01
   1.292106084217105E+01   1.308358777982787E+01   1.324815905469409E+01
   1.341480038136617E+01   1.358353779789045E+01   1.375439766983161E+01
   1.392740669439219E+01   1.410259190458433E+01   1.427998067345347E+01
   1.445960071835569E+01   1.464148010528847E+01   1.482564725327599E+01
   1.501213093880988E+01   1.520096030034534E+01   1.539216484285433E+01
   1.558577444243565E+01   1.578181935098307E+01   1.598033020091248E+01
   1.618133800994798E+01   1.638487418596872E+01   1.659097053191634E+01
   1.679965925076413E+01   1.701097295054906E+01   1.722494464946657E+01
   1.744160778102998E+01   1.766099619929443E+01   1.788314418414657E+01
   1.810808644666106E+01   1.833585813452399E+01   1.856649483752503E+01
   1.880003259311830E+01   1.903650789205317E+01   1.927595768407629E+01
   1.951841938370475E+01   1.976393087607244E+01   2.001253052284959E+01
   2.026425716823670E+01   2.051915014503434E+01   2.077724928078865E+01
   2.103859490401471E+01   2.130322785049792E+01   2.157118946967448E+01
   2.184252163109265E+01   2.211726673095459E+01   2.239546769874117E+01
   2.267716800391965E+01   2.296241166273576E+01   2.325124324509161E+01
   2.354370788150948E+01   2.383985127018388E+01   2.413971968412185E+01
   2.444335997837306E+01   2.475081959735133E+01   2.506214658224758E+01
   2.537738957853664E+01   2.569659784357809E+01   2.601982125431268E+01
   2.634711031505605E+01   2.667851616538971E+01   2.701409058815208E+01
   2.735388601752949E+01   2.769795554724900E+01   2.804635293887475E+01