
     Program BANDS v.7.1 starts on 22Sep2023 at 16: 7: 0 

     This program is part of the open-source Quantum ESPRESSO suite
     for quantum simulation of materials; please cite
         "P. Giannozzi et al., J. Phys.:Condens. Matter 21 395502 (2009);
         "P. Giannozzi et al., J. Phys.:Condens. Matter 29 465901 (2017);
         "P. Giannozzi et al., J. Chem. Phys. 152 154105 (2020);
          URL http://www.quantum-espresso.org", 
     in publications or presentations arising from this work. More details at
     http://www.quantum-espresso.org/quote

     Parallel version (MPI & OpenMP), running on      10 processor cores
     Number of MPI processes:                10
     Threads/MPI process:                     1

     MPI processes distributed on     1 nodes
     R & G space division:  proc/nbgrp/npool/nimage =      10
     11674 MiB available memory on the printing compute node when the environment starts


     Reading xml data from directory:

     ./work/pwscf.save/
     file Fe.pbe-spn-kjpaw_psl.1.0.0.UPF: wavefunction(s)  3P 3D renormalized

     IMPORTANT: XC functional enforced from input :
     Exchange-correlation= PBE
                           (   1   4   3   4   0   0   0)
     Any further DFT definition will be discarded
     Please, verify this is what you really want


     Parallelization info
     --------------------
     sticks:   dense  smooth     PW     G-vecs:    dense   smooth      PW
     Min          80      46     15                 1436      633     115
     Max          81      47     16                 1439      635     116
     Sum         801     467    151                14363     6339    1157

     Using Slab Decomposition


     Check: negative core charge=   -0.000002
     Reading collected, re-writing distributed wavefunctions
     high-symmetry point:  0.0000 0.0000 0.0000   x coordinate   0.0000
     high-symmetry point:  0.0000 1.0000 0.0000   x coordinate   1.0000
     high-symmetry point:  0.5000 0.5000 0.0000   x coordinate   1.7071
     high-symmetry point:  0.0000 0.0000 0.0000   x coordinate   2.4142
     high-symmetry point:  0.5000 0.5000 0.5000   x coordinate   3.2802

     Plottable bands (eV) written to file bands.out.gnu
     Bands written to file bands.out

 **************************************************************************

                    xk=(   0.00000,   0.00000,   0.00000  )

     point group O_h (m-3m) 
     there are 10 classes
     the character table:

       E     8C3   3C2   6C4   6C2'  i     8S6   3s_h  6S4   6s_d 
A_1g   1.00  1.00  1.00  1.00  1.00  1.00  1.00  1.00  1.00  1.00
A_2g   1.00  1.00  1.00 -1.00 -1.00  1.00  1.00  1.00 -1.00 -1.00
E_g    2.00 -1.00  2.00  0.00  0.00  2.00 -1.00  2.00  0.00  0.00
T_1g   3.00  0.00 -1.00  1.00 -1.00  3.00  0.00 -1.00  1.00 -1.00
T_2g   3.00  0.00 -1.00 -1.00  1.00  3.00  0.00 -1.00 -1.00  1.00
A_1u   1.00  1.00  1.00  1.00  1.00 -1.00 -1.00 -1.00 -1.00 -1.00
A_2u   1.00  1.00  1.00 -1.00 -1.00 -1.00 -1.00 -1.00  1.00  1.00
E_u    2.00 -1.00  2.00  0.00  0.00 -2.00  1.00 -2.00  0.00  0.00
T_1u   3.00  0.00 -1.00  1.00 -1.00 -3.00  0.00  1.00 -1.00  1.00
T_2u   3.00  0.00 -1.00 -1.00  1.00 -3.00  0.00  1.00  1.00 -1.00

     the symmetry operations in each class and the name of the first element:

     E        1
                                                                 
     8C3     17   19   20   18   24   21   22   23
                                                                 
     3C2      2    4    3
                                                                 
     6C4      7    8   15   16   12   11
                                                                 
     6C2'     5    6   14   13   10    9
                                                                 
     i       25
                                                                 
     8S6     41   43   44   42   48   45   46   47
                                                                 
     3s_h    26   28   27
                                                                 
     6S4     31   32   39   40   36   35
                                                                 
     6s_d    29   30   38   37   34   33
                                                                 

     Band symmetry, O_h (m-3m)  point group:

     e(  1 -  1) =    -69.02068  eV     1   --> A_1g G_1   G_1+
     e(  2 -  4) =    -34.82633  eV     3   --> T_1u G_15  G_4-
     e(  5 -  5) =      9.69108  eV     1   --> A_1g G_1   G_1+
     e(  6 -  8) =     16.54642  eV     3   --> T_2g G_25' G_5+
     e(  9 - 10) =     18.10104  eV     2   --> E_g  G_12  G_3+
     e( 11 - 13) =     42.45685  eV     3   --> T_2u G_25  G_5-

 **************************************************************************

 **************************************************************************

                    xk=(   0.00000,   0.05000,   0.00000  )

     point group C_4v (4mm) 
     there are  5 classes
     the character table:

       E     2C4   C2    2s_v  2s_d 
A_1    1.00  1.00  1.00  1.00  1.00
A_2    1.00  1.00  1.00 -1.00 -1.00
B_1    1.00 -1.00  1.00  1.00 -1.00
B_2    1.00 -1.00  1.00 -1.00  1.00
E      2.00  0.00 -2.00  0.00  0.00

     the symmetry operations in each class and the name of the first element:

     E        1
                                                                 
     2C4      3    4
                                                                 
     C2       2
                                                                 
     2s_v     5    6
                                                                 
     2s_d     7    8
                                                                 

     Band symmetry, C_4v (4mm)  point group:

     e(  1 -  1) =    -69.01981  eV     1   --> A_1  G_1 D_1   
     e(  2 -  2) =    -34.83025  eV     1   --> A_1  G_1 D_1   
     e(  3 -  4) =    -34.82828  eV     2   --> E    G_5 D_5   
     e(  5 -  5) =      9.74305  eV     1   --> A_1  G_1 D_1   
     e(  6 -  7) =     16.54480  eV     2   --> E    G_5 D_5   
     e(  8 -  8) =     16.56104  eV     1   --> B_2  G_4 D_2'  
     e(  9 -  9) =     18.07505  eV     1   --> B_1  G_3 D_2   
     e( 10 - 10) =     18.11091  eV     1   --> A_1  G_1 D_1   
     e( 11 - 11) =     42.12830  eV     1   --> B_1  G_3 D_2   
     e( 12 - 13) =     42.43165  eV     2   --> E    G_5 D_5   

 **************************************************************************

 **************************************************************************

                    xk=(   0.00000,   0.10000,   0.00000  )

     Band symmetry, C_4v (4mm)  point group:

     e(  1 -  1) =    -69.01695  eV     1   --> A_1  G_1 D_1   
     e(  2 -  2) =    -34.84049  eV     1   --> A_1  G_1 D_1   
     e(  3 -  4) =    -34.83343  eV     2   --> E    G_5 D_5   
     e(  5 -  5) =      9.89796  eV     1   --> A_1  G_1 D_1   
     e(  6 -  7) =     16.54195  eV     2   --> E    G_5 D_5   
     e(  8 -  8) =     16.60460  eV     1   --> B_2  G_4 D_2'  
     e(  9 -  9) =     17.99842  eV     1   --> B_1  G_3 D_2   
     e( 10 - 10) =     18.14046  eV     1   --> A_1  G_1 D_1   
     e( 11 - 11) =     41.35995  eV     1   --> B_1  G_3 D_2   
     e( 12 - 13) =     42.32380  eV     2   --> E    G_5 D_5   

 **************************************************************************

 **************************************************************************

                    xk=(   0.00000,   0.15000,   0.00000  )

     Band symmetry, C_4v (4mm)  point group:

     e(  1 -  1) =    -69.01226  eV     1   --> A_1  G_1 D_1   
     e(  2 -  2) =    -34.85645  eV     1   --> A_1  G_1 D_1   
     e(  3 -  4) =    -34.84189  eV     2   --> E    G_5 D_5   
     e(  5 -  5) =     10.15258  eV     1   --> A_1  G_1 D_1   
     e(  6 -  7) =     16.54016  eV     2   --> E    G_5 D_5   
     e(  8 -  8) =     16.67620  eV     1   --> B_2  G_4 D_2'  
     e(  9 -  9) =     17.87264  eV     1   --> B_1  G_3 D_2   
     e( 10 - 10) =     18.18847  eV     1   --> A_1  G_1 D_1   
     e( 11 - 11) =     40.44600  eV     1   --> B_1  G_3 D_2   
     e( 12 - 13) =     42.04605  eV     2   --> E    G_5 D_5   

 **************************************************************************

 **************************************************************************

                    xk=(   0.00000,   0.20000,   0.00000  )

     Band symmetry, C_4v (4mm)  point group:

     e(  1 -  1) =    -69.00597  eV     1   --> A_1  G_1 D_1   
     e(  2 -  2) =    -34.87844  eV     1   --> A_1  G_1 D_1   
     e(  3 -  4) =    -34.85331  eV     2   --> E    G_5 D_5   
     e(  5 -  5) =     10.50116  eV     1   --> A_1  G_1 D_1   
     e(  6 -  7) =     16.54385  eV     2   --> E    G_5 D_5   
     e(  8 -  8) =     16.77448  eV     1   --> B_2  G_4 D_2'  
     e(  9 -  9) =     17.70073  eV     1   --> B_1  G_3 D_2   
     e( 10 - 10) =     18.25077  eV     1   --> A_1  G_1 D_1   
     e( 11 - 11) =     39.53090  eV     1   --> B_1  G_3 D_2   
     e( 12 - 13) =     41.51062  eV     2   --> E    G_5 D_5   

 **************************************************************************

 **************************************************************************

                    xk=(   0.00000,   0.25000,   0.00000  )

     Band symmetry, C_4v (4mm)  point group:

     e(  1 -  1) =    -68.99826  eV     1   --> A_1  G_1 D_1   
     e(  2 -  2) =    -34.90409  eV     1   --> A_1  G_1 D_1   
     e(  3 -  4) =    -34.86781  eV     2   --> E    G_5 D_5   
     e(  5 -  5) =     10.93513  eV     1   --> A_1  G_1 D_1   
     e(  6 -  7) =     16.55749  eV     2   --> E    G_5 D_5   
     e(  8 -  8) =     16.89725  eV     1   --> B_2  G_4 D_2'  
     e(  9 -  9) =     17.48661  eV     1   --> B_1  G_3 D_2   
     e( 10 - 10) =     18.32796  eV     1   --> A_1  G_1 D_1   
     e( 11 - 11) =     38.67252  eV     1   --> B_1  G_3 D_2   
     e( 12 - 13) =     40.71441  eV     2   --> E    G_5 D_5   

 **************************************************************************

 **************************************************************************

                    xk=(   0.00000,   0.30000,   0.00000  )

     Band symmetry, C_4v (4mm)  point group:

     e(  1 -  1) =    -68.98927  eV     1   --> A_1  G_1 D_1   
     e(  2 -  2) =    -34.93201  eV     1   --> A_1  G_1 D_1   
     e(  3 -  4) =    -34.88463  eV     2   --> E    G_5 D_5   
     e(  5 -  5) =     11.44188  eV     1   --> A_1  G_1 D_1   
     e(  6 -  7) =     16.58721  eV     2   --> E    G_5 D_5   
     e(  8 -  8) =     17.04219  eV     1   --> B_2  G_4 D_2'  
     e(  9 -  9) =     17.23596  eV     1   --> B_1  G_3 D_2   
     e( 10 - 10) =     18.41959  eV     1   --> A_1  G_1 D_1   
     e( 11 - 11) =     37.89370  eV     1   --> B_1  G_3 D_2   
     e( 12 - 13) =     39.73406  eV     2   --> E    G_5 D_5   

 **************************************************************************

 **************************************************************************

                    xk=(   0.00000,   0.35000,   0.00000  )

     Band symmetry, C_4v (4mm)  point group:

     e(  1 -  1) =    -68.97946  eV     1   --> A_1  G_1 D_1   
     e(  2 -  2) =    -34.96121  eV     1   --> A_1  G_1 D_1   
     e(  3 -  4) =    -34.90401  eV     2   --> E    G_5 D_5   
     e(  5 -  5) =     12.00305  eV     1   --> A_1  G_1 D_1   
     e(  6 -  7) =     16.63794  eV     2   --> E    G_5 D_5   
     e(  8 -  8) =     16.95525  eV     1   --> B_1  G_3 D_2   
     e(  9 -  9) =     17.20527  eV     1   --> B_2  G_4 D_2'  
     e( 10 - 10) =     18.53070  eV     1   --> A_1  G_1 D_1   
     e( 11 - 11) =     37.20202  eV     1   --> B_1  G_3 D_2   
     e( 12 - 13) =     38.65156  eV     2   --> E    G_5 D_5   

 **************************************************************************

 **************************************************************************

                    xk=(   0.00000,   0.40000,   0.00000  )

     Band symmetry, C_4v (4mm)  point group:

     e(  1 -  1) =    -68.96922  eV     1   --> A_1  G_1 D_1   
     e(  2 -  2) =    -34.99077  eV     1   --> A_1  G_1 D_1   
     e(  3 -  4) =    -34.92574  eV     2   --> E    G_5 D_5   
     e(  5 -  5) =     12.59194  eV     1   --> A_1  G_1 D_1   
     e(  6 -  6) =     16.65177  eV     1   --> B_1  G_3 D_2   
     e(  7 -  8) =     16.71443  eV     2   --> E    G_5 D_5   
     e(  9 -  9) =     17.38280  eV     1   --> B_2  G_4 D_2'  
     e( 10 - 10) =     18.67486  eV     1   --> A_1  G_1 D_1   
     e( 11 - 11) =     36.59757  eV     1   --> B_1  G_3 D_2   
     e( 12 - 13) =     37.52284  eV     2   --> E    G_5 D_5   

 **************************************************************************

 **************************************************************************

                    xk=(   0.00000,   0.45000,   0.00000  )

     Band symmetry, C_4v (4mm)  point group:

     e(  1 -  1) =    -68.95843  eV     1   --> A_1  G_1 D_1   
     e(  2 -  2) =    -35.01799  eV     1   --> A_1  G_1 D_1   
     e(  3 -  4) =    -34.94812  eV     2   --> E    G_5 D_5   
     e(  5 -  5) =     13.17094  eV     1   --> A_1  G_1 D_1   
     e(  6 -  6) =     16.33424  eV     1   --> B_1  G_3 D_2   
     e(  7 -  8) =     16.82201  eV     2   --> E    G_5 D_5   
     e(  9 -  9) =     17.57185  eV     1   --> B_2  G_4 D_2'  
     e( 10 - 10) =     18.87958  eV     1   --> A_1  G_1 D_1   
     e( 11 - 11) =     36.07680  eV     1   --> B_1  G_3 D_2   
     e( 12 - 13) =     36.38346  eV     2   --> E    G_5 D_5   

 **************************************************************************

 **************************************************************************

                    xk=(   0.00000,   0.50000,   0.00000  )

     Band symmetry, C_4v (4mm)  point group:

     e(  1 -  1) =    -68.94762  eV     1   --> A_1  G_1 D_1   
     e(  2 -  2) =    -35.04253  eV     1   --> A_1  G_1 D_1   
     e(  3 -  4) =    -34.97136  eV     2   --> E    G_5 D_5   
     e(  5 -  5) =     13.69041  eV     1   --> A_1  G_1 D_1   
     e(  6 -  6) =     16.01090  eV     1   --> B_1  G_3 D_2   
     e(  7 -  8) =     16.96270  eV     2   --> E    G_5 D_5   
     e(  9 -  9) =     17.76712  eV     1   --> B_2  G_4 D_2'  
     e( 10 - 10) =     19.18665  eV     1   --> A_1  G_1 D_1   
     e( 11 - 12) =     35.25518  eV     2   --> E    G_5 D_5   
     e( 13 - 13) =     35.63361  eV     1   --> B_1  G_3 D_2   

 **************************************************************************

 **************************************************************************

                    xk=(   0.00000,   0.55000,   0.00000  )

     Band symmetry, C_4v (4mm)  point group:

     e(  1 -  1) =    -68.93709  eV     1   --> A_1  G_1 D_1   
     e(  2 -  2) =    -35.06417  eV     1   --> A_1  G_1 D_1   
     e(  3 -  4) =    -34.99485  eV     2   --> E    G_5 D_5   
     e(  5 -  5) =     14.09835  eV     1   --> A_1  G_1 D_1   
     e(  6 -  6) =     15.69023  eV     1   --> B_1  G_3 D_2   
     e(  7 -  8) =     17.13751  eV     2   --> E    G_5 D_5   
     e(  9 -  9) =     17.96400  eV     1   --> B_2  G_4 D_2'  
     e( 10 - 10) =     19.64386  eV     1   --> A_1  G_1 D_1   
     e( 11 - 12) =     34.15407  eV     2   --> E    G_5 D_5   
     e( 13 - 13) =     35.26089  eV     1   --> B_1  G_3 D_2   

 **************************************************************************

 **************************************************************************

                    xk=(   0.00000,   0.60000,   0.00000  )

     Band symmetry, C_4v (4mm)  point group:

     e(  1 -  1) =    -68.92716  eV     1   --> A_1  G_1 D_1   
     e(  2 -  2) =    -35.08237  eV     1   --> A_1  G_1 D_1   
     e(  3 -  4) =    -35.01832  eV     2   --> E    G_5 D_5   
     e(  5 -  5) =     14.36060  eV     1   --> A_1  G_1 D_1   
     e(  6 -  6) =     15.38012  eV     1   --> B_1  G_3 D_2   
     e(  7 -  8) =     17.34554  eV     2   --> E    G_5 D_5   
     e(  9 -  9) =     18.15739  eV     1   --> B_2  G_4 D_2'  
     e( 10 - 10) =     20.28595  eV     1   --> A_1  G_1 D_1   
     e( 11 - 12) =     33.09310  eV     2   --> E    G_5 D_5   
     e( 13 - 13) =     34.95093  eV     1   --> B_1  G_3 D_2   

 **************************************************************************

 **************************************************************************

                    xk=(   0.00000,   0.65000,   0.00000  )

     Band symmetry, C_4v (4mm)  point group:

     e(  1 -  1) =    -68.91781  eV     1   --> A_1  G_1 D_1   
     e(  2 -  2) =    -35.09628  eV     1   --> A_1  G_1 D_1   
     e(  3 -  4) =    -35.04044  eV     2   --> E    G_5 D_5   
     e(  5 -  5) =     14.47837  eV     1   --> A_1  G_1 D_1   
     e(  6 -  6) =     15.08866  eV     1   --> B_1  G_3 D_2   
     e(  7 -  8) =     17.58410  eV     2   --> E    G_5 D_5   
     e(  9 -  9) =     18.34275  eV     1   --> B_2  G_4 D_2'  
     e( 10 - 10) =     21.11560  eV     1   --> A_1  G_1 D_1   
     e( 11 - 12) =     32.08535  eV     2   --> E    G_5 D_5   
     e( 13 - 13) =     34.69676  eV     1   --> B_1  G_3 D_2   

 **************************************************************************

 **************************************************************************

                    xk=(   0.00000,   0.70000,   0.00000  )

     Band symmetry, C_4v (4mm)  point group:

     e(  1 -  1) =    -68.90950  eV     1   --> A_1  G_1 D_1   
     e(  2 -  2) =    -35.10703  eV     1   --> A_1  G_1 D_1   
     e(  3 -  4) =    -35.06146  eV     2   --> E    G_5 D_5   
     e(  5 -  5) =     14.48188  eV     1   --> A_1  G_1 D_1   
     e(  6 -  6) =     14.82211  eV     1   --> B_1  G_3 D_2   
     e(  7 -  8) =     17.84643  eV     2   --> E    G_5 D_5   
     e(  9 -  9) =     18.51450  eV     1   --> B_2  G_4 D_2'  
     e( 10 - 10) =     22.10551  eV     1   --> A_1  G_1 D_1   
     e( 11 - 12) =     31.14395  eV     2   --> E    G_5 D_5   
     e( 13 - 13) =     34.49101  eV     1   --> B_1  G_3 D_2   

 **************************************************************************

 **************************************************************************

                    xk=(   0.00000,   0.75000,   0.00000  )

     Band symmetry, C_4v (4mm)  point group:

     e(  1 -  1) =    -68.90216  eV     1   --> A_1  G_1 D_1   
     e(  2 -  2) =    -35.11463  eV     1   --> A_1  G_1 D_1   
     e(  3 -  4) =    -35.07996  eV     2   --> E    G_5 D_5   
     e(  5 -  5) =     14.41228  eV     1   --> A_1  G_1 D_1   
     e(  6 -  6) =     14.58691  eV     1   --> B_1  G_3 D_2   
     e(  7 -  8) =     18.12256  eV     2   --> E    G_5 D_5   
     e(  9 -  9) =     18.66911  eV     1   --> B_2  G_4 D_2'  
     e( 10 - 10) =     23.21677  eV     1   --> A_1  G_1 D_1   
     e( 11 - 12) =     30.28493  eV     2   --> E    G_5 D_5   
     e( 13 - 13) =     34.32795  eV     1   --> B_1  G_3 D_2   

 **************************************************************************

 **************************************************************************

                    xk=(   0.00000,   0.80000,   0.00000  )

     Band symmetry, C_4v (4mm)  point group:

     e(  1 -  1) =    -68.89609  eV     1   --> A_1  G_1 D_1   
     e(  2 -  2) =    -35.12029  eV     1   --> A_1  G_1 D_1   
     e(  3 -  4) =    -35.09596  eV     2   --> E    G_5 D_5   
     e(  5 -  5) =     14.30688  eV     1   --> A_1  G_1 D_1   
     e(  6 -  6) =     14.38778  eV     1   --> B_1  G_3 D_2   
     e(  7 -  8) =     18.39757  eV     2   --> E    G_5 D_5   
     e(  9 -  9) =     18.80183  eV     1   --> B_2  G_4 D_2'  
     e( 10 - 10) =     24.40398  eV     1   --> A_1  G_1 D_1   
     e( 11 - 12) =     29.52708  eV     2   --> E    G_5 D_5   
     e( 13 - 13) =     34.20198  eV     1   --> B_1  G_3 D_2   

 **************************************************************************

 **************************************************************************

                    xk=(   0.00000,   0.85000,   0.00000  )

     Band symmetry, C_4v (4mm)  point group:

     e(  1 -  1) =    -68.89113  eV     1   --> A_1  G_1 D_1   
     e(  2 -  2) =    -35.12319  eV     1   --> A_1  G_1 D_1   
     e(  3 -  4) =    -35.10849  eV     2   --> E    G_5 D_5   
     e(  5 -  5) =     14.19641  eV     1   --> A_1  G_1 D_1   
     e(  6 -  6) =     14.22904  eV     1   --> B_1  G_3 D_2   
     e(  7 -  8) =     18.65284  eV     2   --> E    G_5 D_5   
     e(  9 -  9) =     18.90918  eV     1   --> B_2  G_4 D_2'  
     e( 10 - 10) =     25.61080  eV     1   --> A_1  G_1 D_1   
     e( 11 - 12) =     28.89370  eV     2   --> E    G_5 D_5   
     e( 13 - 13) =     34.10892  eV     1   --> B_1  G_3 D_2   

 **************************************************************************

 **************************************************************************

                    xk=(   0.00000,   0.90000,   0.00000  )

     Band symmetry, C_4v (4mm)  point group:

     e(  1 -  1) =    -68.88751  eV     1   --> A_1  G_1 D_1   
     e(  2 -  2) =    -35.12427  eV     1   --> A_1  G_1 D_1   
     e(  3 -  4) =    -35.11780  eV     2   --> E    G_5 D_5   
     e(  5 -  5) =     14.10292  eV     1   --> A_1  G_1 D_1   
     e(  6 -  6) =     14.11332  eV     1   --> B_1  G_3 D_2   
     e(  7 -  8) =     18.86350  eV     2   --> E    G_5 D_5   
     e(  9 -  9) =     18.98805  eV     1   --> B_2  G_4 D_2'  
     e( 10 - 10) =     26.74737  eV     1   --> A_1  G_1 D_1   
     e( 11 - 12) =     28.41138  eV     2   --> E    G_5 D_5   
     e( 13 - 13) =     34.04480  eV     1   --> B_1  G_3 D_2   

 **************************************************************************

 **************************************************************************

                    xk=(   0.00000,   0.95000,   0.00000  )

     Band symmetry, C_4v (4mm)  point group:

     e(  1 -  1) =    -68.88547  eV     1   --> A_1  G_1 D_1   
     e(  2 -  2) =    -35.12550  eV     1   --> A_1  G_1 D_1   
     e(  3 -  4) =    -35.12379  eV     2   --> E    G_5 D_5   
     e(  5 -  5) =     14.04084  eV     1   --> A_1  G_1 D_1   
     e(  6 -  6) =     14.04286  eV     1   --> B_1  G_3 D_2   
     e(  7 -  8) =     19.00310  eV     2   --> E    G_5 D_5   
     e(  9 -  9) =     19.03623  eV     1   --> B_2  G_4 D_2'  
     e( 10 - 10) =     27.64150  eV     1   --> A_1  G_1 D_1   
     e( 11 - 12) =     28.10732  eV     2   --> E    G_5 D_5   
     e( 13 - 13) =     34.00715  eV     1   --> B_1  G_3 D_2   

 **************************************************************************

 **************************************************************************

                    xk=(   0.00000,   1.00000,   0.00000  )

     point group O_h (m-3m) 
     there are 10 classes
     the character table:

       E     8C3   3C2   6C4   6C2'  i     8S6   3s_h  6S4   6s_d 
A_1g   1.00  1.00  1.00  1.00  1.00  1.00  1.00  1.00  1.00  1.00
A_2g   1.00  1.00  1.00 -1.00 -1.00  1.00  1.00  1.00 -1.00 -1.00
E_g    2.00 -1.00  2.00  0.00  0.00  2.00 -1.00  2.00  0.00  0.00
T_1g   3.00  0.00 -1.00  1.00 -1.00  3.00  0.00 -1.00  1.00 -1.00
T_2g   3.00  0.00 -1.00 -1.00  1.00  3.00  0.00 -1.00 -1.00  1.00
A_1u   1.00  1.00  1.00  1.00  1.00 -1.00 -1.00 -1.00 -1.00 -1.00
A_2u   1.00  1.00  1.00 -1.00 -1.00 -1.00 -1.00 -1.00  1.00  1.00
E_u    2.00 -1.00  2.00  0.00  0.00 -2.00  1.00 -2.00  0.00  0.00
T_1u   3.00  0.00 -1.00  1.00 -1.00 -3.00  0.00  1.00 -1.00  1.00
T_2u   3.00  0.00 -1.00 -1.00  1.00 -3.00  0.00  1.00  1.00 -1.00

     the symmetry operations in each class and the name of the first element:

     E        1
                                                                 
     8C3     17   19   20   18   24   21   22   23
                                                                 
     3C2      2    4    3
                                                                 
     6C4      7    8   15   16   12   11
                                                                 
     6C2'     5    6   14   13   10    9
                                                                 
     i       25
                                                                 
     8S6     41   43   44   42   48   45   46   47
                                                                 
     3s_h    26   28   27
                                                                 
     6S4     31   32   39   40   36   35
                                                                 
     6s_d    29   30   38   37   34   33
                                                                 

     Band symmetry, O_h (m-3m)  point group:

     e(  1 -  1) =    -68.88476  eV     1   --> A_1g G_1   G_1+
     e(  2 -  4) =    -35.12573  eV     3   --> T_1u G_15  G_4-
     e(  5 -  6) =     14.01926  eV     2   --> E_g  G_12  G_3+
     e(  7 -  9) =     19.05245  eV     3   --> T_2g G_25' G_5+
     e( 10 - 12) =     28.00321  eV     3   --> T_1u G_15  G_4-
     e( 13 - 13) =     33.99481  eV     1   -->   ?

 **************************************************************************

 **************************************************************************

                    xk=(   0.02500,   0.97500,   0.00000  )

     point group C_2v (mm2) 
     there are  4 classes
     the character table:

       E     C2    s_v   s_v' 
A_1    1.00  1.00  1.00  1.00
A_2    1.00  1.00 -1.00 -1.00
B_1    1.00 -1.00  1.00 -1.00
B_2    1.00 -1.00 -1.00  1.00

     the symmetry operations in each class and the name of the first element:

     E        1
                                                                 
     C2       2
                                                                 
     s_v      4
                                                                 
     s_v'     3
                                                                 

     Band symmetry, C_2v (mm2)  point group:

     e(  1 -  1) =    -68.88512  eV     1   --> A_1  D_1  S_1  
     e(  2 -  2) =    -35.12646  eV     1   --> B_2  D_4  S_4  
     e(  3 -  3) =    -35.12476  eV     1   --> B_1  D_3  S_3  
     e(  4 -  4) =    -35.12392  eV     1   --> A_1  D_1  S_1  
     e(  5 -  5) =     14.03040  eV     1   --> B_2  D_4  S_4  
     e(  6 -  6) =     14.03081  eV     1   --> A_1  D_1  S_1  
     e(  7 -  7) =     19.01783  eV     1   --> B_1  D_3  S_3  
     e(  8 -  8) =     19.02751  eV     1   --> A_1  D_1  S_1  
     e(  9 -  9) =     19.05415  eV     1   --> A_2  D_2  S_2  
     e( 10 - 10) =     27.91385  eV     1   --> B_2  D_4  S_4  
     e( 11 - 11) =     27.95527  eV     1   --> A_1  D_1  S_1  
     e( 12 - 12) =     28.05540  eV     1   --> B_1  D_3  S_3  
     e( 13 - 13) =     34.03579  eV     1   -->   ?

 **************************************************************************

 **************************************************************************

                    xk=(   0.05000,   0.95000,   0.00000  )

     Band symmetry, C_2v (mm2)  point group:

     e(  1 -  1) =    -68.88610  eV     1   --> A_1  D_1  S_1  
     e(  2 -  2) =    -35.12846  eV     1   --> B_2  D_4  S_4  
     e(  3 -  3) =    -35.12185  eV     1   --> B_1  D_3  S_3  
     e(  4 -  4) =    -35.11806  eV     1   --> A_1  D_1  S_1  
     e(  5 -  5) =     14.06407  eV     1   --> B_2  D_4  S_4  
     e(  6 -  6) =     14.06500  eV     1   --> A_1  D_1  S_1  
     e(  7 -  7) =     18.91679  eV     1   --> B_1  D_3  S_3  
     e(  8 -  8) =     18.95403  eV     1   --> A_1  D_1  S_1  
     e(  9 -  9) =     19.05922  eV     1   --> A_2  D_2  S_2  
     e( 10 - 10) =     27.66289  eV     1   --> B_2  D_4  S_4  
     e( 11 - 11) =     27.82144  eV     1   --> A_1  D_1  S_1  
     e( 12 - 12) =     28.20927  eV     1   --> B_1  D_3  S_3  
     e( 13 - 13) =     34.14712  eV     1   -->   ?

 **************************************************************************

 **************************************************************************

                    xk=(   0.07500,   0.92500,   0.00000  )

     Band symmetry, C_2v (mm2)  point group:

     e(  1 -  1) =    -68.88782  eV     1   --> A_1  D_1  S_1  
     e(  2 -  2) =    -35.13174  eV     1   --> B_2  D_4  S_4  
     e(  3 -  3) =    -35.11689  eV     1   --> B_1  D_3  S_3  
     e(  4 -  4) =    -35.10950  eV     1   --> A_1  D_1  S_1  
     e(  5 -  5) =     14.11983  eV     1   --> A_1  D_1  S_1  
     e(  6 -  6) =     14.12000  eV     1   --> B_2  D_4  S_4  
     e(  7 -  7) =     18.75722  eV     1   --> B_1  D_3  S_3  
     e(  8 -  8) =     18.83432  eV     1   --> A_1  D_1  S_1  
     e(  9 -  9) =     19.06770  eV     1   --> A_2  D_2  S_2  
     e( 10 - 10) =     27.28931  eV     1   --> B_2  D_4  S_4  
     e( 11 - 11) =     27.62613  eV     1   --> A_1  D_1  S_1  
     e( 12 - 12) =     28.45747  eV     1   --> B_1  D_3  S_3  
     e( 13 - 13) =     34.30216  eV     1   --> A_1  D_1  S_1  

 **************************************************************************

 **************************************************************************

                    xk=(   0.10000,   0.90000,   0.00000  )

     Band symmetry, C_2v (mm2)  point group:

     e(  1 -  1) =    -68.89024  eV     1   --> A_1  D_1  S_1  
     e(  2 -  2) =    -35.13673  eV     1   --> B_2  D_4  S_4  
     e(  3 -  3) =    -35.11036  eV     1   --> B_1  D_3  S_3  
     e(  4 -  4) =    -35.09777  eV     1   --> A_1  D_1  S_1  
     e(  5 -  5) =     14.19236  eV     1   --> A_1  D_1  S_1  
     e(  6 -  6) =     14.19780  eV     1   --> B_2  D_4  S_4  
     e(  7 -  7) =     18.54909  eV     1   --> B_1  D_3  S_3  
     e(  8 -  8) =     18.67542  eV     1   --> A_1  D_1  S_1  
     e(  9 -  9) =     19.07916  eV     1   --> A_2  D_2  S_2  
     e( 10 - 10) =     26.83308  eV     1   --> B_2  D_4  S_4  
     e( 11 - 11) =     27.39797  eV     1   --> A_1  D_1  S_1  
     e( 12 - 12) =     28.78958  eV     1   --> B_1  D_3  S_3  
     e( 13 - 13) =     34.47290  eV     1   --> A_1  D_1  S_1  

 **************************************************************************

 **************************************************************************

                    xk=(   0.12500,   0.87500,   0.00000  )

     Band symmetry, C_2v (mm2)  point group:

     e(  1 -  1) =    -68.89331  eV     1   --> A_1  D_1  S_1  
     e(  2 -  2) =    -35.14314  eV     1   --> B_2  D_4  S_4  
     e(  3 -  3) =    -35.10273  eV     1   --> B_1  D_3  S_3  
     e(  4 -  4) =    -35.08300  eV     1   --> A_1  D_1  S_1  
     e(  5 -  5) =     14.27783  eV     1   --> A_1  D_1  S_1  
     e(  6 -  6) =     14.29804  eV     1   --> B_2  D_4  S_4  
     e(  7 -  7) =     18.30459  eV     1   --> B_1  D_3  S_3  
     e(  8 -  8) =     18.48540  eV     1   --> A_1  D_1  S_1  
     e(  9 -  9) =     19.09286  eV     1   --> A_2  D_2  S_2  
     e( 10 - 10) =     26.32512  eV     1   --> B_2  D_4  S_4  
     e( 11 - 11) =     27.16161  eV     1   --> A_1  D_1  S_1  
     e( 12 - 12) =     29.19420  eV     1   --> B_1  D_3  S_3  
     e( 13 - 13) =     34.63963  eV     1   --> A_1  D_1  S_1  

 **************************************************************************

 **************************************************************************

                    xk=(   0.15000,   0.85000,   0.00000  )

     Band symmetry, C_2v (mm2)  point group:

     e(  1 -  1) =    -68.89676  eV     1   --> A_1  D_1  S_1  
     e(  2 -  2) =    -35.15016  eV     1   --> B_2  D_4  S_4  
     e(  3 -  3) =    -35.09328  eV     1   --> B_1  D_3  S_3  
     e(  4 -  4) =    -35.06538  eV     1   --> A_1  D_1  S_1  
     e(  5 -  5) =     14.36999  eV     1   --> A_1  D_1  S_1  
     e(  6 -  6) =     14.42090  eV     1   --> B_2  D_4  S_4  
     e(  7 -  7) =     18.03603  eV     1   --> B_1  D_3  S_3  
     e(  8 -  8) =     18.27609  eV     1   --> A_1  D_1  S_1  
     e(  9 -  9) =     19.10942  eV     1   --> A_2  D_2  S_2  
     e( 10 - 10) =     25.78655  eV     1   --> B_2  D_4  S_4  
     e( 11 - 11) =     26.93480  eV     1   --> A_1  D_1  S_1  
     e( 12 - 12) =     29.66045  eV     1   --> B_1  D_3  S_3  
     e( 13 - 13) =     34.79343  eV     1   --> A_1  D_1  S_1  

 **************************************************************************

 **************************************************************************

                    xk=(   0.17500,   0.82500,   0.00000  )

     Band symmetry, C_2v (mm2)  point group:

     e(  1 -  1) =    -68.90054  eV     1   --> A_1  D_1  S_1  
     e(  2 -  2) =    -35.15792  eV     1   --> B_2  D_4  S_4  
     e(  3 -  3) =    -35.08256  eV     1   --> B_1  D_3  S_3  
     e(  4 -  4) =    -35.04493  eV     1   --> A_1  D_1  S_1  
     e(  5 -  5) =     14.45985  eV     1   --> A_1  D_1  S_1  
     e(  6 -  6) =     14.56641  eV     1   --> B_2  D_4  S_4  
     e(  7 -  7) =     17.75365  eV     1   --> B_1  D_3  S_3  
     e(  8 -  8) =     18.06247  eV     1   --> A_1  D_1  S_1  
     e(  9 -  9) =     19.12810  eV     1   --> A_2  D_2  S_2  
     e( 10 - 10) =     25.23086  eV     1   --> B_2  D_4  S_4  
     e( 11 - 11) =     26.72849  eV     1   --> A_1  D_1  S_1  
     e( 12 - 12) =     30.17879  eV     1   --> B_1  D_3  S_3  
     e( 13 - 13) =     34.93286  eV     1   --> A_1  D_1  S_1  

 **************************************************************************

 **************************************************************************

                    xk=(   0.20000,   0.80000,   0.00000  )

     Band symmetry, C_2v (mm2)  point group:

     e(  1 -  1) =    -68.90468  eV     1   --> A_1  D_1  S_1  
     e(  2 -  2) =    -35.16634  eV     1   --> B_2  D_4  S_4  
     e(  3 -  3) =    -35.07084  eV     1   --> B_1  D_3  S_3  
     e(  4 -  4) =    -35.02331  eV     1   --> A_1  D_1  S_1  
     e(  5 -  5) =     14.53609  eV     1   --> A_1  D_1  S_1  
     e(  6 -  6) =     14.73428  eV     1   --> B_2  D_4  S_4  
     e(  7 -  7) =     17.46585  eV     1   --> B_1  D_3  S_3  
     e(  8 -  8) =     17.86131  eV     1   --> A_1  D_1  S_1  
     e(  9 -  9) =     19.14831  eV     1   --> A_2  D_2  S_2  
     e( 10 - 10) =     24.66693  eV     1   --> B_2  D_4  S_4  
     e( 11 - 11) =     26.54758  eV     1   --> A_1  D_1  S_1  
     e( 12 - 12) =     30.74094  eV     1   --> B_1  D_3  S_3  
     e( 13 - 13) =     35.05997  eV     1   --> A_1  D_1  S_1  

 **************************************************************************

 **************************************************************************

                    xk=(   0.22500,   0.77500,   0.00000  )

     Band symmetry, C_2v (mm2)  point group:

     e(  1 -  1) =    -68.90914  eV     1   --> A_1  D_1  S_1  
     e(  2 -  2) =    -35.17539  eV     1   --> B_2  D_4  S_4  
     e(  3 -  3) =    -35.05901  eV     1   --> B_1  D_3  S_3  
     e(  4 -  4) =    -35.00064  eV     1   --> A_1  D_1  S_1  
     e(  5 -  5) =     14.58510  eV     1   --> A_1  D_1  S_1  
     e(  6 -  6) =     14.92440  eV     1   --> B_2  D_4  S_4  
     e(  7 -  7) =     17.18029  eV     1   --> B_1  D_3  S_3  
     e(  8 -  8) =     17.69174  eV     1   --> A_1  D_1  S_1  
     e(  9 -  9) =     19.16928  eV     1   --> A_2  D_2  S_2  
     e( 10 - 10) =     24.10071  eV     1   --> B_2  D_4  S_4  
     e( 11 - 11) =     26.39357  eV     1   --> A_1  D_1  S_1  
     e( 12 - 12) =     31.34018  eV     1   --> B_1  D_3  S_3  
     e( 13 - 13) =     35.17825  eV     1   --> A_1  D_1  S_1  

 **************************************************************************

 **************************************************************************

                    xk=(   0.25000,   0.75000,   0.00000  )

     Band symmetry, C_2v (mm2)  point group:

     e(  1 -  1) =    -68.91365  eV     1   --> A_1  D_1  S_1  
     e(  2 -  2) =    -35.18456  eV     1   --> B_2  D_4  S_4  
     e(  3 -  3) =    -35.04655  eV     1   --> B_1  D_3  S_3  
     e(  4 -  4) =    -34.97730  eV     1   --> A_1  D_1  S_1  
     e(  5 -  5) =     14.59485  eV     1   --> A_1  D_1  S_1  
     e(  6 -  6) =     15.13689  eV     1   --> B_2  D_4  S_4  
     e(  7 -  7) =     16.90346  eV     1   --> B_1  D_3  S_3  
     e(  8 -  8) =     17.57116  eV     1   --> A_1  D_1  S_1  
     e(  9 -  9) =     19.19119  eV     1   --> A_2  D_2  S_2  
     e( 10 - 10) =     23.53651  eV     1   --> B_2  D_4  S_4  
     e( 11 - 11) =     26.26572  eV     1   --> A_1  D_1  S_1  
     e( 12 - 12) =     31.97111  eV     1   --> B_1  D_3  S_3  
     e( 13 - 13) =     35.29134  eV     1   --> A_1  D_1  S_1  

 **************************************************************************

 **************************************************************************

                    xk=(   0.27500,   0.72500,   0.00000  )

     Band symmetry, C_2v (mm2)  point group:

     e(  1 -  1) =    -68.91811  eV     1   --> A_1  D_1  S_1  
     e(  2 -  2) =    -35.19371  eV     1   --> B_2  D_4  S_4  
     e(  3 -  3) =    -35.03376  eV     1   --> B_1  D_3  S_3  
     e(  4 -  4) =    -34.95376  eV     1   --> A_1  D_1  S_1  
     e(  5 -  5) =     14.55814  eV     1   --> A_1  D_1  S_1  
     e(  6 -  6) =     15.37166  eV     1   --> B_2  D_4  S_4  
     e(  7 -  7) =     16.64071  eV     1   --> B_1  D_3  S_3  
     e(  8 -  8) =     17.51037  eV     1   --> A_1  D_1  S_1  
     e(  9 -  9) =     19.21316  eV     1   --> A_2  D_2  S_2  
     e( 10 - 10) =     22.97737  eV     1   --> B_2  D_4  S_4  
     e( 11 - 11) =     26.16200  eV     1   --> A_1  D_1  S_1  
     e( 12 - 12) =     32.62933  eV     1   --> B_1  D_3  S_3  
     e( 13 - 13) =     35.40195  eV     1   --> A_1  D_1  S_1  

 **************************************************************************

 **************************************************************************

                    xk=(   0.30000,   0.70000,   0.00000  )

     Band symmetry, C_2v (mm2)  point group:

     e(  1 -  1) =    -68.92259  eV     1   --> A_1  D_1  S_1  
     e(  2 -  2) =    -35.20274  eV     1   --> B_2  D_4  S_4  
     e(  3 -  3) =    -35.02173  eV     1   --> B_1  D_3  S_3  
     e(  4 -  4) =    -34.93144  eV     1   --> A_1  D_1  S_1  
     e(  5 -  5) =     14.47671  eV     1   --> A_1  D_1  S_1  
     e(  6 -  6) =     15.62841  eV     1   --> B_2  D_4  S_4  
     e(  7 -  7) =     16.39528  eV     1   --> B_1  D_3  S_3  
     e(  8 -  8) =     17.50933  eV     1   --> A_1  D_1  S_1  
     e(  9 -  9) =     19.23458  eV     1   --> A_2  D_2  S_2  
     e( 10 - 10) =     22.42549  eV     1   --> B_2  D_4  S_4  
     e( 11 - 11) =     26.07902  eV     1   --> A_1  D_1  S_1  
     e( 12 - 12) =     33.31049  eV     1   --> B_1  D_3  S_3  
     e( 13 - 13) =     35.51160  eV     1   --> A_1  D_1  S_1  

 **************************************************************************

 **************************************************************************

                    xk=(   0.32500,   0.67500,   0.00000  )

     Band symmetry, C_2v (mm2)  point group:

     e(  1 -  1) =    -68.92672  eV     1   --> A_1  D_1  S_1  
     e(  2 -  2) =    -35.21095  eV     1   --> B_2  D_4  S_4  
     e(  3 -  3) =    -35.01006  eV     1   --> B_1  D_3  S_3  
     e(  4 -  4) =    -34.90954  eV     1   --> A_1  D_1  S_1  
     e(  5 -  5) =     14.36168  eV     1   --> A_1  D_1  S_1  
     e(  6 -  6) =     15.90747  eV     1   --> B_2  D_4  S_4  
     e(  7 -  7) =     16.17193  eV     1   --> B_1  D_3  S_3  
     e(  8 -  8) =     17.55854  eV     1   --> A_1  D_1  S_1  
     e(  9 -  9) =     19.25525  eV     1   --> A_2  D_2  S_2  
     e( 10 - 10) =     21.88320  eV     1   --> B_2  D_4  S_4  
     e( 11 - 11) =     26.01426  eV     1   --> A_1  D_1  S_1  
     e( 12 - 12) =     34.01106  eV     1   --> B_1  D_3  S_3  
     e( 13 - 13) =     35.62129  eV     1   --> A_1  D_1  S_1  

 **************************************************************************

 **************************************************************************

                    xk=(   0.35000,   0.65000,   0.00000  )

     Band symmetry, C_2v (mm2)  point group:

     e(  1 -  1) =    -68.93059  eV     1   --> A_1  D_1  S_1  
     e(  2 -  2) =    -35.21876  eV     1   --> B_2  D_4  S_4  
     e(  3 -  3) =    -34.99945  eV     1   --> B_1  D_3  S_3  
     e(  4 -  4) =    -34.88946  eV     1   --> A_1  D_1  S_1  
     e(  5 -  5) =     14.22823  eV     1   --> A_1  D_1  S_1  
     e(  6 -  6) =     15.97280  eV     1   --> B_1  D_3  S_3  
     e(  7 -  7) =     16.20797  eV     1   --> B_2  D_4  S_4  
     e(  8 -  8) =     17.64176  eV     1   --> A_1  D_1  S_1  
     e(  9 -  9) =     19.27416  eV     1   --> A_2  D_2  S_2  
     e( 10 - 10) =     21.35193  eV     1   --> B_2  D_4  S_4  
     e( 11 - 11) =     25.96463  eV     1   --> A_1  D_1  S_1  
     e( 12 - 12) =     34.72675  eV     1   --> B_1  D_3  S_3  
     e( 13 - 13) =     35.73006  eV     1   --> A_1  D_1  S_1  

 **************************************************************************

 **************************************************************************

                    xk=(   0.37500,   0.62500,   0.00000  )

     Band symmetry, C_2v (mm2)  point group:

     e(  1 -  1) =    -68.93412  eV     1   --> A_1  D_1  S_1  
     e(  2 -  2) =    -35.22620  eV     1   --> B_2  D_4  S_4  
     e(  3 -  3) =    -34.99030  eV     1   --> B_1  D_3  S_3  
     e(  4 -  4) =    -34.87136  eV     1   --> A_1  D_1  S_1  
     e(  5 -  5) =     14.09137  eV     1   --> A_1  D_1  S_1  
     e(  6 -  6) =     15.80069  eV     1   --> B_1  D_3  S_3  
     e(  7 -  7) =     16.52971  eV     1   --> B_2  D_4  S_4  
     e(  8 -  8) =     17.74190  eV     1   --> A_1  D_1  S_1  
     e(  9 -  9) =     19.29094  eV     1   --> A_2  D_2  S_2  
     e( 10 - 10) =     20.83297  eV     1   --> B_2  D_4  S_4  
     e( 11 - 11) =     25.92748  eV     1   --> A_1  D_1  S_1  
     e( 12 - 12) =     35.45211  eV     1   --> B_1  D_3  S_3  
     e( 13 - 13) =     35.83555  eV     1   --> A_1  D_1  S_1  

 **************************************************************************

 **************************************************************************

                    xk=(   0.40000,   0.60000,   0.00000  )

     Band symmetry, C_2v (mm2)  point group:

     e(  1 -  1) =    -68.93705  eV     1   --> A_1  D_1  S_1  
     e(  2 -  2) =    -35.23214  eV     1   --> B_2  D_4  S_4  
     e(  3 -  3) =    -34.98212  eV     1   --> B_1  D_3  S_3  
     e(  4 -  4) =    -34.85593  eV     1   --> A_1  D_1  S_1  
     e(  5 -  5) =     13.96475  eV     1   --> A_1  D_1  S_1  
     e(  6 -  6) =     15.65743  eV     1   --> B_1  D_3  S_3  
     e(  7 -  7) =     16.87224  eV     1   --> B_2  D_4  S_4  
     e(  8 -  8) =     17.84437  eV     1   --> A_1  D_1  S_1  
     e(  9 -  9) =     19.30540  eV     1   --> A_2  D_2  S_2  
     e( 10 - 10) =     20.32814  eV     1   --> B_2  D_4  S_4  
     e( 11 - 11) =     25.90063  eV     1   --> A_1  D_1  S_1  
     e( 12 - 12) =     35.93445  eV     1   --> A_1  D_1  S_1  
     e( 13 - 13) =     36.17825  eV     1   --> B_1  D_3  S_3  

 **************************************************************************

 **************************************************************************

                    xk=(   0.42500,   0.57500,   0.00000  )

     Band symmetry, C_2v (mm2)  point group:

     e(  1 -  1) =    -68.93936  eV     1   --> A_1  D_1  S_1  
     e(  2 -  2) =    -35.23659  eV     1   --> B_2  D_4  S_4  
     e(  3 -  3) =    -34.97550  eV     1   --> B_1  D_3  S_3  
     e(  4 -  4) =    -34.84343  eV     1   --> A_1  D_1  S_1  
     e(  5 -  5) =     13.85773  eV     1   --> A_1  D_1  S_1  
     e(  6 -  6) =     15.54450  eV     1   --> B_1  D_3  S_3  
     e(  7 -  7) =     17.23493  eV     1   --> B_2  D_4  S_4  
     e(  8 -  8) =     17.93659  eV     1   --> A_1  D_1  S_1  
     e(  9 -  9) =     19.31717  eV     1   --> A_2  D_2  S_2  
     e( 10 - 10) =     19.83875  eV     1   --> B_2  D_4  S_4  
     e( 11 - 11) =     25.88203  eV     1   --> A_1  D_1  S_1  
     e( 12 - 12) =     36.02129  eV     1   --> A_1  D_1  S_1  
     e( 13 - 13) =     36.88853  eV     1   --> B_1  D_3  S_3  

 **************************************************************************

 **************************************************************************

                    xk=(   0.45000,   0.55000,   0.00000  )

     Band symmetry, C_2v (mm2)  point group:

     e(  1 -  1) =    -68.94111  eV     1   --> A_1  D_1  S_1  
     e(  2 -  2) =    -35.24009  eV     1   --> B_2  D_4  S_4  
     e(  3 -  3) =    -34.97066  eV     1   --> B_1  D_3  S_3  
     e(  4 -  4) =    -34.83452  eV     1   --> A_1  D_1  S_1  
     e(  5 -  5) =     13.77672  eV     1   --> A_1  D_1  S_1  
     e(  6 -  6) =     15.46300  eV     1   --> B_1  D_3  S_3  
     e(  7 -  7) =     17.61572  eV     1   --> B_2  D_4  S_4  
     e(  8 -  8) =     18.00891  eV     1   --> A_1  D_1  S_1  
     e(  9 -  9) =     19.32571  eV     1   --> A_2  D_2  S_2  
     e( 10 - 10) =     19.36690  eV     1   --> B_2  D_4  S_4  
     e( 11 - 11) =     25.86983  eV     1   --> A_1  D_1  S_1  
     e( 12 - 12) =     36.08983  eV     1   --> A_1  D_1  S_1  
     e( 13 - 13) =     37.54673  eV     1   --> B_1  D_3  S_3  

 **************************************************************************

 **************************************************************************

                    xk=(   0.47500,   0.52500,   0.00000  )

     Band symmetry, C_2v (mm2)  point group:

     e(  1 -  1) =    -68.94211  eV     1   --> A_1  D_1  S_1  
     e(  2 -  2) =    -35.24218  eV     1   --> B_2  D_4  S_4  
     e(  3 -  3) =    -34.96757  eV     1   --> B_1  D_3  S_3  
     e(  4 -  4) =    -34.82868  eV     1   --> A_1  D_1  S_1  
     e(  5 -  5) =     13.72646  eV     1   --> A_1  D_1  S_1  
     e(  6 -  6) =     15.41406  eV     1   --> B_1  D_3  S_3  
     e(  7 -  7) =     18.00900  eV     1   --> B_2  D_4  S_4  
     e(  8 -  8) =     18.05515  eV     1   --> A_1  D_1  S_1  
     e(  9 -  9) =     18.91896  eV     1   --> B_2  D_4  S_4  
     e( 10 - 10) =     19.33098  eV     1   --> A_2  D_2  S_2  
     e( 11 - 11) =     25.86325  eV     1   --> A_1  D_1  S_1  
     e( 12 - 12) =     36.13407  eV     1   --> A_1  D_1  S_1  
     e( 13 - 13) =     38.06771  eV     1   --> B_1  D_3  S_3  

 **************************************************************************

 **************************************************************************

                    xk=(   0.50000,   0.50000,   0.00000  )

     point group D_2h (mmm) 
     there are  8 classes
     the character table:

       E     C2    C2'   C2''  i     s_v   s_v'  s_v''
A_g    1.00  1.00  1.00  1.00  1.00  1.00  1.00  1.00
B_1g   1.00  1.00 -1.00 -1.00  1.00  1.00 -1.00 -1.00
B_2g   1.00 -1.00  1.00 -1.00  1.00 -1.00  1.00 -1.00
B_3g   1.00 -1.00 -1.00  1.00  1.00 -1.00 -1.00  1.00
A_u    1.00  1.00  1.00  1.00 -1.00 -1.00 -1.00 -1.00
B_1u   1.00  1.00 -1.00 -1.00 -1.00 -1.00  1.00  1.00
B_2u   1.00 -1.00  1.00 -1.00 -1.00  1.00 -1.00  1.00
B_3u   1.00 -1.00 -1.00  1.00 -1.00  1.00  1.00 -1.00

     the symmetry operations in each class and the name of the first element:

     E        1
                                                                 
     C2       2
                                                                 
     C2'      4
                                                                 
     C2''     3
                                                                 
     i        5
                                                                 
     s_v      6
                                                                 
     s_v'     8
                                                                 
     s_v''    7
                                                                 

     Band symmetry, D_2h (mmm)  point group:

     e(  1 -  1) =    -68.94260  eV     1   --> A_g            
     e(  2 -  2) =    -35.24308  eV     1   --> B_3u           
     e(  3 -  3) =    -34.96694  eV     1   --> B_1u           
     e(  4 -  4) =    -34.82757  eV     1   --> B_2u           
     e(  5 -  5) =     13.70935  eV     1   --> A_g            
     e(  6 -  6) =     15.39693  eV     1   --> B_3g           
     e(  7 -  7) =     18.07077  eV     1   --> A_g            
     e(  8 -  8) =     18.31303  eV     1   --> B_1g           
     e(  9 -  9) =     18.59622  eV     1   --> B_3u           
     e( 10 - 10) =     19.33255  eV     1   --> B_2g           
     e( 11 - 11) =     25.86068  eV     1   --> A_g            
     e( 12 - 12) =     36.14933  eV     1   --> B_2u           
     e( 13 - 13) =     38.28234  eV     1   --> B_1u           

 **************************************************************************

 **************************************************************************

                    xk=(   0.47500,   0.47500,   0.00000  )

     point group C_2v (mm2) 
     there are  4 classes
     the character table:

       E     C2    s_v   s_v' 
A_1    1.00  1.00  1.00  1.00
A_2    1.00  1.00 -1.00 -1.00
B_1    1.00 -1.00  1.00 -1.00
B_2    1.00 -1.00 -1.00  1.00

     the symmetry operations in each class and the name of the first element:

     E        1
                                                                 
     C2       2
                                                                 
     s_v      3
                                                                 
     s_v'     4
                                                                 

     Band symmetry, C_2v (mm2)  point group:

     e(  1 -  1) =    -68.94304  eV     1   --> A_1  D_1  S_1  
     e(  2 -  2) =    -35.24016  eV     1   --> A_1  D_1  S_1  
     e(  3 -  3) =    -34.96608  eV     1   --> B_2  D_4  S_4  
     e(  4 -  4) =    -34.82757  eV     1   --> B_1  D_3  S_3  
     e(  5 -  5) =     13.70481  eV     1   --> A_1  D_1  S_1  
     e(  6 -  6) =     15.40347  eV     1   --> A_2  D_2  S_2  
     e(  7 -  7) =     18.05863  eV     1   --> A_1  D_1  S_1  
     e(  8 -  8) =     18.31092  eV     1   --> B_1  D_3  S_3  
     e(  9 -  9) =     18.51186  eV     1   --> A_1  D_1  S_1  
     e( 10 - 10) =     19.31144  eV     1   --> B_2  D_4  S_4  
     e( 11 - 11) =     26.00341  eV     1   --> A_1  D_1  S_1  
     e( 12 - 12) =     36.18087  eV     1   --> B_1  D_3  S_3  
     e( 13 - 13) =     38.32871  eV     1   --> B_2  D_4  S_4  

 **************************************************************************

 **************************************************************************

                    xk=(   0.45000,   0.45000,   0.00000  )

     Band symmetry, C_2v (mm2)  point group:

     e(  1 -  1) =    -68.94449  eV     1   --> A_1  D_1  S_1  
     e(  2 -  2) =    -35.23288  eV     1   --> A_1  D_1  S_1  
     e(  3 -  3) =    -34.96351  eV     1   --> B_2  D_4  S_4  
     e(  4 -  4) =    -34.82743  eV     1   --> B_1  D_3  S_3  
     e(  5 -  5) =     13.68767  eV     1   --> A_1  D_1  S_1  
     e(  6 -  6) =     15.42306  eV     1   --> A_2  D_2  S_2  
     e(  7 -  7) =     18.00202  eV     1   --> A_1  D_1  S_1  
     e(  8 -  8) =     18.30379  eV     1   --> A_1  D_1  S_1  
     e(  9 -  9) =     18.30478  eV     1   --> B_1  D_3  S_3  
     e( 10 - 10) =     19.24894  eV     1   --> B_2  D_4  S_4  
     e( 11 - 11) =     26.40823  eV     1   --> A_1  D_1  S_1  
     e( 12 - 12) =     36.27518  eV     1   --> B_1  D_3  S_3  
     e( 13 - 13) =     38.46682  eV     1   --> B_2  D_4  S_4  

 **************************************************************************

 **************************************************************************

                    xk=(   0.42500,   0.42500,   0.00000  )

     Band symmetry, C_2v (mm2)  point group:

     e(  1 -  1) =    -68.94672  eV     1   --> A_1  D_1  S_1  
     e(  2 -  2) =    -35.22058  eV     1   --> A_1  D_1  S_1  
     e(  3 -  3) =    -34.95866  eV     1   --> B_2  D_4  S_4  
     e(  4 -  4) =    -34.82687  eV     1   --> B_1  D_3  S_3  
     e(  5 -  5) =     13.65150  eV     1   --> A_1  D_1  S_1  
     e(  6 -  6) =     15.45568  eV     1   --> A_2  D_2  S_2  
     e(  7 -  7) =     17.79176  eV     1   --> A_1  D_1  S_1  
     e(  8 -  8) =     18.14074  eV     1   --> A_1  D_1  S_1  
     e(  9 -  9) =     18.29487  eV     1   --> B_1  D_3  S_3  
     e( 10 - 10) =     19.14794  eV     1   --> B_2  D_4  S_4  
     e( 11 - 11) =     27.02360  eV     1   --> A_1  D_1  S_1  
     e( 12 - 12) =     36.43124  eV     1   --> B_1  D_3  S_3  
     e( 13 - 13) =     38.69395  eV     1   --> B_2  D_4  S_4  

 **************************************************************************

 **************************************************************************

                    xk=(   0.40000,   0.40000,   0.00000  )

     Band symmetry, C_2v (mm2)  point group:

     e(  1 -  1) =    -68.94995  eV     1   --> A_1  D_1  S_1  
     e(  2 -  2) =    -35.20384  eV     1   --> A_1  D_1  S_1  
     e(  3 -  3) =    -34.95299  eV     1   --> B_2  D_4  S_4  
     e(  4 -  4) =    -34.82687  eV     1   --> B_1  D_3  S_3  
     e(  5 -  5) =     13.58384  eV     1   --> A_1  D_1  S_1  
     e(  6 -  6) =     15.49968  eV     1   --> A_2  D_2  S_2  
     e(  7 -  7) =     17.43839  eV     1   --> A_1  D_1  S_1  
     e(  8 -  8) =     18.07631  eV     1   --> A_1  D_1  S_1  
     e(  9 -  9) =     18.28161  eV     1   --> B_1  D_3  S_3  
     e( 10 - 10) =     19.01241  eV     1   --> B_2  D_4  S_4  
     e( 11 - 11) =     27.79423  eV     1   --> A_1  D_1  S_1  
     e( 12 - 12) =     36.64732  eV     1   --> B_1  D_3  S_3  
     e( 13 - 13) =     39.00545  eV     1   --> B_2  D_4  S_4  

 **************************************************************************

 **************************************************************************

                    xk=(   0.37500,   0.37500,   0.00000  )

     Band symmetry, C_2v (mm2)  point group:

     e(  1 -  1) =    -68.95405  eV     1   --> A_1  D_1  S_1  
     e(  2 -  2) =    -35.18327  eV     1   --> A_1  D_1  S_1  
     e(  3 -  3) =    -34.94614  eV     1   --> B_2  D_4  S_4  
     e(  4 -  4) =    -34.82726  eV     1   --> B_1  D_3  S_3  
     e(  5 -  5) =     13.46876  eV     1   --> A_1  D_1  S_1  
     e(  6 -  6) =     15.55439  eV     1   --> A_2  D_2  S_2  
     e(  7 -  7) =     17.07850  eV     1   --> A_1  D_1  S_1  
     e(  8 -  8) =     18.03192  eV     1   --> A_1  D_1  S_1  
     e(  9 -  9) =     18.26543  eV     1   --> B_1  D_3  S_3  
     e( 10 - 10) =     18.84761  eV     1   --> B_2  D_4  S_4  
     e( 11 - 11) =     28.67747  eV     1   --> A_1  D_1  S_1  
     e( 12 - 12) =     36.92108  eV     1   --> B_1  D_3  S_3  
     e( 13 - 13) =     39.39582  eV     1   --> B_2  D_4  S_4  

 **************************************************************************

 **************************************************************************

                    xk=(   0.35000,   0.35000,   0.00000  )

     Band symmetry, C_2v (mm2)  point group:

     e(  1 -  1) =    -68.95870  eV     1   --> A_1  D_1  S_1  
     e(  2 -  2) =    -35.15867  eV     1   --> A_1  D_1  S_1  
     e(  3 -  3) =    -34.93757  eV     1   --> B_2  D_4  S_4  
     e(  4 -  4) =    -34.82724  eV     1   --> B_1  D_3  S_3  
     e(  5 -  5) =     13.29082  eV     1   --> A_1  D_1  S_1  
     e(  6 -  6) =     15.61945  eV     1   --> A_2  D_2  S_2  
     e(  7 -  7) =     16.77359  eV     1   --> A_1  D_1  S_1  
     e(  8 -  8) =     17.99071  eV     1   --> A_1  D_1  S_1  
     e(  9 -  9) =     18.24785  eV     1   --> B_1  D_3  S_3  
     e( 10 - 10) =     18.66043  eV     1   --> B_2  D_4  S_4  
     e( 11 - 11) =     29.64292  eV     1   --> A_1  D_1  S_1  
     e( 12 - 12) =     37.24949  eV     1   --> B_1  D_3  S_3  
     e( 13 - 13) =     39.85883  eV     1   --> B_2  D_4  S_4  

 **************************************************************************

 **************************************************************************

                    xk=(   0.32500,   0.32500,   0.00000  )

     Band symmetry, C_2v (mm2)  point group:

     e(  1 -  1) =    -68.96396  eV     1   --> A_1  D_1  S_1  
     e(  2 -  2) =    -35.13115  eV     1   --> A_1  D_1  S_1  
     e(  3 -  3) =    -34.92830  eV     1   --> B_2  D_4  S_4  
     e(  4 -  4) =    -34.82724  eV     1   --> B_1  D_3  S_3  
     e(  5 -  5) =     13.04254  eV     1   --> A_1  D_1  S_1  
     e(  6 -  6) =     15.69304  eV     1   --> A_2  D_2  S_2  
     e(  7 -  7) =     16.55143  eV     1   --> A_1  D_1  S_1  
     e(  8 -  8) =     17.95062  eV     1   --> A_1  D_1  S_1  
     e(  9 -  9) =     18.22927  eV     1   --> B_1  D_3  S_3  
     e( 10 - 10) =     18.45625  eV     1   --> B_2  D_4  S_4  
     e( 11 - 11) =     30.66865  eV     1   --> A_1  D_1  S_1  
     e( 12 - 12) =     37.62875  eV     1   --> B_1  D_3  S_3  
     e( 13 - 13) =     40.38751  eV     1   --> B_2  D_4  S_4  

 **************************************************************************

 **************************************************************************

                    xk=(   0.30000,   0.30000,   0.00000  )

     Band symmetry, C_2v (mm2)  point group:

     e(  1 -  1) =    -68.96968  eV     1   --> A_1  D_1  S_1  
     e(  2 -  2) =    -35.10145  eV     1   --> A_1  D_1  S_1  
     e(  3 -  3) =    -34.91824  eV     1   --> B_2  D_4  S_4  
     e(  4 -  4) =    -34.82724  eV     1   --> B_1  D_3  S_3  
     e(  5 -  5) =     12.73068  eV     1   --> A_1  D_1  S_1  
     e(  6 -  6) =     15.77364  eV     1   --> A_2  D_2  S_2  
     e(  7 -  7) =     16.41585  eV     1   --> A_1  D_1  S_1  
     e(  8 -  8) =     17.91334  eV     1   --> A_1  D_1  S_1  
     e(  9 -  9) =     18.21046  eV     1   --> B_1  D_3  S_3  
     e( 10 - 10) =     18.24168  eV     1   --> B_2  D_4  S_4  
     e( 11 - 11) =     31.73860  eV     1   --> A_1  D_1  S_1  
     e( 12 - 12) =     38.05418  eV     1   --> B_1  D_3  S_3  
     e( 13 - 13) =     40.97517  eV     1   --> B_2  D_4  S_4  

 **************************************************************************

 **************************************************************************

                    xk=(   0.27500,   0.27500,   0.00000  )

     Band symmetry, C_2v (mm2)  point group:

     e(  1 -  1) =    -68.97566  eV     1   --> A_1  D_1  S_1  
     e(  2 -  2) =    -35.06988  eV     1   --> A_1  D_1  S_1  
     e(  3 -  3) =    -34.90763  eV     1   --> B_2  D_4  S_4  
     e(  4 -  4) =    -34.82723  eV     1   --> B_1  D_3  S_3  
     e(  5 -  5) =     12.37389  eV     1   --> A_1  D_1  S_1  
     e(  6 -  6) =     15.85945  eV     1   --> A_2  D_2  S_2  
     e(  7 -  7) =     16.35397  eV     1   --> A_1  D_1  S_1  
     e(  8 -  8) =     17.88149  eV     1   --> A_1  D_1  S_1  
     e(  9 -  9) =     18.02282  eV     1   --> B_2  D_4  S_4  
     e( 10 - 10) =     18.19217  eV     1   --> B_1  D_3  S_3  
     e( 11 - 11) =     32.83975  eV     1   --> A_1  D_1  S_1  
     e( 12 - 12) =     38.51998  eV     1   --> B_1  D_3  S_3  
     e( 13 - 13) =     41.61526  eV     1   --> B_2  D_4  S_4  

 **************************************************************************

 **************************************************************************

                    xk=(   0.25000,   0.25000,   0.00000  )

     Band symmetry, C_2v (mm2)  point group:

     e(  1 -  1) =    -68.98175  eV     1   --> A_1  D_1  S_1  
     e(  2 -  2) =    -35.03717  eV     1   --> A_1  D_1  S_1  
     e(  3 -  3) =    -34.89660  eV     1   --> B_2  D_4  S_4  
     e(  4 -  4) =    -34.82716  eV     1   --> B_1  D_3  S_3  
     e(  5 -  5) =     11.99484  eV     1   --> A_1  D_1  S_1  
     e(  6 -  6) =     15.94859  eV     1   --> A_2  D_2  S_2  
     e(  7 -  7) =     16.34472  eV     1   --> A_1  D_1  S_1  
     e(  8 -  8) =     17.80553  eV     1   --> B_2  D_4  S_4  
     e(  9 -  9) =     17.85820  eV     1   --> A_1  D_1  S_1  
     e( 10 - 10) =     18.17512  eV     1   --> B_1  D_3  S_3  
     e( 11 - 11) =     33.96069  eV     1   --> A_1  D_1  S_1  
     e( 12 - 12) =     39.01888  eV     1   --> B_1  D_3  S_3  
     e( 13 - 13) =     41.84988  eV     1   --> A_2  D_2  S_2  

 **************************************************************************

 **************************************************************************

                    xk=(   0.22500,   0.22500,   0.00000  )

     Band symmetry, C_2v (mm2)  point group:

     e(  1 -  1) =    -68.98786  eV     1   --> A_1  D_1  S_1  
     e(  2 -  2) =    -35.00464  eV     1   --> A_1  D_1  S_1  
     e(  3 -  3) =    -34.88574  eV     1   --> B_2  D_4  S_4  
     e(  4 -  4) =    -34.82681  eV     1   --> B_1  D_3  S_3  
     e(  5 -  5) =     11.61373  eV     1   --> A_1  D_1  S_1  
     e(  6 -  6) =     16.03880  eV     1   --> A_2  D_2  S_2  
     e(  7 -  7) =     16.36744  eV     1   --> A_1  D_1  S_1  
     e(  8 -  8) =     17.59408  eV     1   --> B_2  D_4  S_4  
     e(  9 -  9) =     17.84682  eV     1   --> A_1  D_1  S_1  
     e( 10 - 10) =     18.15974  eV     1   --> B_1  D_3  S_3  
     e( 11 - 11) =     35.09014  eV     1   --> A_1  D_1  S_1  
     e( 12 - 12) =     39.54141  eV     1   --> B_1  D_3  S_3  
     e( 13 - 13) =     41.91808  eV     1   --> A_2  D_2  S_2  

 **************************************************************************

 **************************************************************************

                    xk=(   0.20000,   0.20000,   0.00000  )

     Band symmetry, C_2v (mm2)  point group:

     e(  1 -  1) =    -68.99378  eV     1   --> A_1  D_1  S_1  
     e(  2 -  2) =    -34.97237  eV     1   --> A_1  D_1  S_1  
     e(  3 -  3) =    -34.87505  eV     1   --> B_2  D_4  S_4  
     e(  4 -  4) =    -34.82679  eV     1   --> B_1  D_3  S_3  
     e(  5 -  5) =     11.24636  eV     1   --> A_1  D_1  S_1  
     e(  6 -  6) =     16.12789  eV     1   --> A_2  D_2  S_2  
     e(  7 -  7) =     16.40556  eV     1   --> A_1  D_1  S_1  
     e(  8 -  8) =     17.39380  eV     1   --> B_2  D_4  S_4  
     e(  9 -  9) =     17.84940  eV     1   --> A_1  D_1  S_1  
     e( 10 - 10) =     18.14595  eV     1   --> B_1  D_3  S_3  
     e( 11 - 11) =     36.21621  eV     1   --> A_1  D_1  S_1  
     e( 12 - 12) =     40.07485  eV     1   --> B_1  D_3  S_3  
     e( 13 - 13) =     41.99148  eV     1   --> A_2  D_2  S_2  

 **************************************************************************

 **************************************************************************

                    xk=(   0.17500,   0.17500,   0.00000  )

     Band symmetry, C_2v (mm2)  point group:

     e(  1 -  1) =    -68.99938  eV     1   --> A_1  D_1  S_1  
     e(  2 -  2) =    -34.94178  eV     1   --> A_1  D_1  S_1  
     e(  3 -  3) =    -34.86473  eV     1   --> B_2  D_4  S_4  
     e(  4 -  4) =    -34.82653  eV     1   --> B_1  D_3  S_3  
     e(  5 -  5) =     10.90420  eV     1   --> A_1  D_1  S_1  
     e(  6 -  6) =     16.21366  eV     1   --> A_2  D_2  S_2  
     e(  7 -  7) =     16.44609  eV     1   --> A_1  D_1  S_1  
     e(  8 -  8) =     17.20841  eV     1   --> B_2  D_4  S_4  
     e(  9 -  9) =     17.86742  eV     1   --> A_1  D_1  S_1  
     e( 10 - 10) =     18.13444  eV     1   --> B_1  D_3  S_3  
     e( 11 - 11) =     37.32476  eV     1   --> A_1  D_1  S_1  
     e( 12 - 12) =     40.60233  eV     1   --> B_1  D_3  S_3  
     e( 13 - 13) =     42.06873  eV     1   --> A_2  D_2  S_2  

 **************************************************************************

 **************************************************************************

                    xk=(   0.15000,   0.15000,   0.00000  )

     Band symmetry, C_2v (mm2)  point group:

     e(  1 -  1) =    -69.00461  eV     1   --> A_1  D_1  S_1  
     e(  2 -  2) =    -34.91357  eV     1   --> A_1  D_1  S_1  
     e(  3 -  3) =    -34.85536  eV     1   --> B_2  D_4  S_4  
     e(  4 -  4) =    -34.82659  eV     1   --> B_1  D_3  S_3  
     e(  5 -  5) =     10.59559  eV     1   --> A_1  D_1  S_1  
     e(  6 -  6) =     16.29356  eV     1   --> A_2  D_2  S_2  
     e(  7 -  7) =     16.48155  eV     1   --> A_1  D_1  S_1  
     e(  8 -  8) =     17.04112  eV     1   --> B_2  D_4  S_4  
     e(  9 -  9) =     17.89917  eV     1   --> A_1  D_1  S_1  
     e( 10 - 10) =     18.12455  eV     1   --> B_1  D_3  S_3  
     e( 11 - 11) =     38.39934  eV     1   --> A_1  D_1  S_1  
     e( 12 - 12) =     41.10131  eV     1   --> B_1  D_3  S_3  
     e( 13 - 13) =     42.14770  eV     1   --> A_2  D_2  S_2  

 **************************************************************************

 **************************************************************************

                    xk=(   0.12500,   0.12500,   0.00000  )

     Band symmetry, C_2v (mm2)  point group:

     e(  1 -  1) =    -69.00934  eV     1   --> A_1  D_1  S_1  
     e(  2 -  2) =    -34.88867  eV     1   --> A_1  D_1  S_1  
     e(  3 -  3) =    -34.84719  eV     1   --> B_2  D_4  S_4  
     e(  4 -  4) =    -34.82678  eV     1   --> B_1  D_3  S_3  
     e(  5 -  5) =     10.32655  eV     1   --> A_1  D_1  S_1  
     e(  6 -  6) =     16.36573  eV     1   --> A_2  D_2  S_2  
     e(  7 -  7) =     16.50835  eV     1   --> A_1  D_1  S_1  
     e(  8 -  8) =     16.89444  eV     1   --> B_2  D_4  S_4  
     e(  9 -  9) =     17.94088  eV     1   --> A_1  D_1  S_1  
     e( 10 - 10) =     18.11637  eV     1   --> B_1  D_3  S_3  
     e( 11 - 11) =     39.41953  eV     1   --> A_1  D_1  S_1  
     e( 12 - 12) =     41.54481  eV     1   --> B_1  D_3  S_3  
     e( 13 - 13) =     42.22565  eV     1   --> A_2  D_2  S_2  

 **************************************************************************

 **************************************************************************

                    xk=(   0.10000,   0.10000,   0.00000  )

     Band symmetry, C_2v (mm2)  point group:

     e(  1 -  1) =    -69.01328  eV     1   --> A_1  D_1  S_1  
     e(  2 -  2) =    -34.86673  eV     1   --> A_1  D_1  S_1  
     e(  3 -  3) =    -34.84009  eV     1   --> B_2  D_4  S_4  
     e(  4 -  4) =    -34.82674  eV     1   --> B_1  D_3  S_3  
     e(  5 -  5) =     10.10147  eV     1   --> A_1  D_1  S_1  
     e(  6 -  6) =     16.42795  eV     1   --> A_2  D_2  S_2  
     e(  7 -  7) =     16.52668  eV     1   --> A_1  D_1  S_1  
     e(  8 -  8) =     16.77155  eV     1   --> B_2  D_4  S_4  
     e(  9 -  9) =     17.98739  eV     1   --> A_1  D_1  S_1  
     e( 10 - 10) =     18.11050  eV     1   --> B_1  D_3  S_3  
     e( 11 - 11) =     40.35958  eV     1   --> A_1  D_1  S_1  
     e( 12 - 12) =     41.90637  eV     1   --> B_1  D_3  S_3  
     e( 13 - 13) =     42.29888  eV     1   --> A_2  D_2  S_2  

 **************************************************************************

 **************************************************************************

                    xk=(   0.07500,   0.07500,   0.00000  )

     Band symmetry, C_2v (mm2)  point group:

     e(  1 -  1) =    -69.01655  eV     1   --> A_1  D_1  S_1  
     e(  2 -  2) =    -34.84986  eV     1   --> A_1  D_1  S_1  
     e(  3 -  3) =    -34.83442  eV     1   --> B_2  D_4  S_4  
     e(  4 -  4) =    -34.82676  eV     1   --> B_1  D_3  S_3  
     e(  5 -  5) =      9.92346  eV     1   --> A_1  D_1  S_1  
     e(  6 -  6) =     16.47841  eV     1   --> A_2  D_2  S_2  
     e(  7 -  7) =     16.53707  eV     1   --> A_1  D_1  S_1  
     e(  8 -  8) =     16.67384  eV     1   --> B_2  D_4  S_4  
     e(  9 -  9) =     18.03185  eV     1   --> A_1  D_1  S_1  
     e( 10 - 10) =     18.10604  eV     1   --> B_1  D_3  S_3  
     e( 11 - 11) =     41.18550  eV     1   --> A_1  D_1  S_1  
     e( 12 - 12) =     42.17028  eV     1   --> B_1  D_3  S_3  
     e( 13 - 13) =     42.36302  eV     1   --> A_2  D_2  S_2  

 **************************************************************************

 **************************************************************************

                    xk=(   0.05000,   0.05000,   0.00000  )

     Band symmetry, C_2v (mm2)  point group:

     e(  1 -  1) =    -69.01888  eV     1   --> A_1  D_1  S_1  
     e(  2 -  2) =    -34.83714  eV     1   --> A_1  D_1  S_1  
     e(  3 -  3) =    -34.83021  eV     1   --> B_2  D_4  S_4  
     e(  4 -  4) =    -34.82656  eV     1   --> B_1  D_3  S_3  
     e(  5 -  5) =      9.79483  eV     1   --> A_1  D_1  S_1  
     e(  6 -  6) =     16.51560  eV     1   --> A_2  D_2  S_2  
     e(  7 -  7) =     16.54296  eV     1   --> A_1  D_1  S_1  
     e(  8 -  8) =     16.60319  eV     1   --> B_2  D_4  S_4  
     e(  9 -  9) =     18.06853  eV     1   --> A_1  D_1  S_1  
     e( 10 - 10) =     18.10305  eV     1   --> B_1  D_3  S_3  
     e( 11 - 11) =     41.85197  eV     1   --> A_1  D_1  S_1  
     e( 12 - 12) =     42.33914  eV     1   --> B_1  D_3  S_3  
     e( 13 - 13) =     42.41340  eV     1   --> A_2  D_2  S_2  

 **************************************************************************

 **************************************************************************

                    xk=(   0.02500,   0.02500,   0.00000  )

     Band symmetry, C_2v (mm2)  point group:

     e(  1 -  1) =    -69.02031  eV     1   --> A_1  D_1  S_1  
     e(  2 -  2) =    -34.82937  eV     1   --> A_1  D_1  S_1  
     e(  3 -  3) =    -34.82763  eV     1   --> B_2  D_4  S_4  
     e(  4 -  4) =    -34.82656  eV     1   --> B_1  D_3  S_3  
     e(  5 -  5) =      9.71707  eV     1   --> A_1  D_1  S_1  
     e(  6 -  6) =     16.53838  eV     1   --> A_2  D_2  S_2  
     e(  7 -  7) =     16.54553  eV     1   --> A_1  D_1  S_1  
     e(  8 -  8) =     16.56040  eV     1   --> B_2  D_4  S_4  
     e(  9 -  9) =     18.09247  eV     1   --> A_1  D_1  S_1  
     e( 10 - 10) =     18.10131  eV     1   --> B_1  D_3  S_3  
     e( 11 - 11) =     42.29775  eV     1   --> A_1  D_1  S_1  
     e( 12 - 12) =     42.42910  eV     1   --> B_1  D_3  S_3  
     e( 13 - 13) =     42.44571  eV     1   --> A_2  D_2  S_2  

 **************************************************************************

 **************************************************************************

                    xk=(   0.00000,   0.00000,   0.00000  )

     point group O_h (m-3m) 
     there are 10 classes
     the character table:

       E     8C3   3C2   6C4   6C2'  i     8S6   3s_h  6S4   6s_d 
A_1g   1.00  1.00  1.00  1.00  1.00  1.00  1.00  1.00  1.00  1.00
A_2g   1.00  1.00  1.00 -1.00 -1.00  1.00  1.00  1.00 -1.00 -1.00
E_g    2.00 -1.00  2.00  0.00  0.00  2.00 -1.00  2.00  0.00  0.00
T_1g   3.00  0.00 -1.00  1.00 -1.00  3.00  0.00 -1.00  1.00 -1.00
T_2g   3.00  0.00 -1.00 -1.00  1.00  3.00  0.00 -1.00 -1.00  1.00
A_1u   1.00  1.00  1.00  1.00  1.00 -1.00 -1.00 -1.00 -1.00 -1.00
A_2u   1.00  1.00  1.00 -1.00 -1.00 -1.00 -1.00 -1.00  1.00  1.00
E_u    2.00 -1.00  2.00  0.00  0.00 -2.00  1.00 -2.00  0.00  0.00
T_1u   3.00  0.00 -1.00  1.00 -1.00 -3.00  0.00  1.00 -1.00  1.00
T_2u   3.00  0.00 -1.00 -1.00  1.00 -3.00  0.00  1.00  1.00 -1.00

     the symmetry operations in each class and the name of the first element:

     E        1
                                                                 
     8C3     17   19   20   18   24   21   22   23
                                                                 
     3C2      2    4    3
                                                                 
     6C4      7    8   15   16   12   11
                                                                 
     6C2'     5    6   14   13   10    9
                                                                 
     i       25
                                                                 
     8S6     41   43   44   42   48   45   46   47
                                                                 
     3s_h    26   28   27
                                                                 
     6S4     31   32   39   40   36   35
                                                                 
     6s_d    29   30   38   37   34   33
                                                                 

     Band symmetry, O_h (m-3m)  point group:

     e(  1 -  1) =    -69.02068  eV     1   --> A_1g G_1   G_1+
     e(  2 -  4) =    -34.82633  eV     3   --> T_1u G_15  G_4-
     e(  5 -  5) =      9.69108  eV     1   --> A_1g G_1   G_1+
     e(  6 -  8) =     16.54642  eV     3   --> T_2g G_25' G_5+
     e(  9 - 10) =     18.10104  eV     2   --> E_g  G_12  G_3+
     e( 11 - 13) =     42.45685  eV     3   --> T_2u G_25  G_5-

 **************************************************************************

 **************************************************************************

                    xk=(   0.02500,   0.02500,   0.02500  )

     point group C_3v (3m)  
     there are  3 classes
     the character table:

       E     2C3   3s_v 
A_1    1.00  1.00  1.00
A_2    1.00  1.00 -1.00
E      2.00 -1.00  0.00

     the symmetry operations in each class and the name of the first element:

     E        1
                                                                 
     2C3      2    3
                                                                 
     3s_v     4    5    6
                                                                 

     Band symmetry, C_3v (3m)   point group:

     e(  1 -  1) =    -69.02003  eV     1   --> A_1  L_1       
     e(  2 -  2) =    -34.83109  eV     1   --> A_1  L_1       
     e(  3 -  4) =    -34.82689  eV     2   --> E    L_3       
     e(  5 -  5) =      9.73007  eV     1   --> A_1  L_1       
     e(  6 -  7) =     16.53815  eV     2   --> E    L_3       
     e(  8 -  8) =     16.57126  eV     1   --> A_1  L_1       
     e(  9 - 10) =     18.09513  eV     2   --> E    L_3       
     e( 11 - 12) =     42.29073  eV     2   --> E    L_3       
     e( 13 - 13) =     42.49160  eV     1   --> A_2  L_2       

 **************************************************************************

 **************************************************************************

                    xk=(   0.05000,   0.05000,   0.05000  )

     Band symmetry, C_3v (3m)   point group:

     e(  1 -  1) =    -69.01789  eV     1   --> A_1  L_1       
     e(  2 -  2) =    -34.84387  eV     1   --> A_1  L_1       
     e(  3 -  4) =    -34.82819  eV     2   --> E    L_3       
     e(  5 -  5) =      9.84642  eV     1   --> A_1  L_1       
     e(  6 -  7) =     16.51331  eV     2   --> E    L_3       
     e(  8 -  8) =     16.64605  eV     1   --> A_1  L_1       
     e(  9 - 10) =     18.07942  eV     2   --> E    L_3       
     e( 11 - 12) =     41.81386  eV     2   --> E    L_3       
     e( 13 - 13) =     42.59585  eV     1   --> A_2  L_2       

 **************************************************************************

 **************************************************************************

                    xk=(   0.07500,   0.07500,   0.07500  )

     Band symmetry, C_3v (3m)   point group:

     e(  1 -  1) =    -69.01442  eV     1   --> A_1  L_1       
     e(  2 -  2) =    -34.86378  eV     1   --> A_1  L_1       
     e(  3 -  4) =    -34.83071  eV     2   --> E    L_3       
     e(  5 -  5) =     10.03818  eV     1   --> A_1  L_1       
     e(  6 -  7) =     16.47007  eV     2   --> E    L_3       
     e(  8 -  8) =     16.77048  eV     1   --> A_1  L_1       
     e(  9 - 10) =     18.05777  eV     2   --> E    L_3       
     e( 11 - 12) =     41.08960  eV     2   --> E    L_3       
     e( 13 - 13) =     42.76959  eV     1   --> A_2  L_2       

 **************************************************************************

 **************************************************************************

                    xk=(   0.10000,   0.10000,   0.10000  )

     Band symmetry, C_3v (3m)   point group:

     e(  1 -  1) =    -69.00981  eV     1   --> A_1  L_1       
     e(  2 -  2) =    -34.89130  eV     1   --> A_1  L_1       
     e(  3 -  4) =    -34.83386  eV     2   --> E    L_3       
     e(  5 -  5) =     10.30203  eV     1   --> A_1  L_1       
     e(  6 -  7) =     16.40724  eV     2   --> E    L_3       
     e(  8 -  8) =     16.94183  eV     1   --> A_1  L_1       
     e(  9 - 10) =     18.03615  eV     2   --> E    L_3       
     e( 11 - 12) =     40.20180  eV     2   --> E    L_3       
     e( 13 - 13) =     43.01281  eV     1   --> A_2  L_2       

 **************************************************************************

 **************************************************************************

                    xk=(   0.12500,   0.12500,   0.12500  )

     Band symmetry, C_3v (3m)   point group:

     e(  1 -  1) =    -69.00415  eV     1   --> A_1  L_1       
     e(  2 -  2) =    -34.92373  eV     1   --> A_1  L_1       
     e(  3 -  4) =    -34.83801  eV     2   --> E    L_3       
     e(  5 -  5) =     10.63335  eV     1   --> A_1  L_1       
     e(  6 -  7) =     16.32403  eV     2   --> E    L_3       
     e(  8 -  8) =     17.15994  eV     1   --> A_1  L_1       
     e(  9 - 10) =     18.02025  eV     2   --> E    L_3       
     e( 11 - 12) =     39.22368  eV     2   --> E    L_3       
     e( 13 - 13) =     43.32550  eV     1   --> A_2  L_2       

 **************************************************************************

 **************************************************************************

                    xk=(   0.15000,   0.15000,   0.15000  )

     Band symmetry, C_3v (3m)   point group:

     e(  1 -  1) =    -68.99768  eV     1   --> A_1  L_1       
     e(  2 -  2) =    -34.95951  eV     1   --> A_1  L_1       
     e(  3 -  4) =    -34.84314  eV     2   --> E    L_3       
     e(  5 -  5) =     11.02595  eV     1   --> A_1  L_1       
     e(  6 -  7) =     16.22220  eV     2   --> E    L_3       
     e(  8 -  8) =     17.42292  eV     1   --> A_1  L_1       
     e(  9 - 10) =     18.01411  eV     2   --> E    L_3       
     e( 11 - 12) =     38.20600  eV     2   --> E    L_3       
     e( 13 - 13) =     42.06605  eV     1   --> A_1  L_1       

 **************************************************************************

 **************************************************************************

                    xk=(   0.17500,   0.17500,   0.17500  )

     Band symmetry, C_3v (3m)   point group:

     e(  1 -  1) =    -68.99068  eV     1   --> A_1  L_1       
     e(  2 -  2) =    -34.99669  eV     1   --> A_1  L_1       
     e(  3 -  4) =    -34.84961  eV     2   --> E    L_3       
     e(  5 -  5) =     11.47205  eV     1   --> A_1  L_1       
     e(  6 -  7) =     16.10538  eV     2   --> E    L_3       
     e(  8 -  8) =     17.72929  eV     1   --> A_1  L_1       
     e(  9 - 10) =     18.01942  eV     2   --> E    L_3       
     e( 11 - 12) =     37.18092  eV     2   --> E    L_3       
     e( 13 - 13) =     40.61544  eV     1   --> A_1  L_1       

 **************************************************************************

 **************************************************************************

                    xk=(   0.20000,   0.20000,   0.20000  )

     Band symmetry, C_3v (3m)   point group:

     e(  1 -  1) =    -68.98362  eV     1   --> A_1  L_1       
     e(  2 -  2) =    -35.03437  eV     1   --> A_1  L_1       
     e(  3 -  4) =    -34.85789  eV     2   --> E    L_3       
     e(  5 -  5) =     11.96163  eV     1   --> A_1  L_1       
     e(  6 -  7) =     15.97895  eV     2   --> E    L_3       
     e(  8 -  9) =     18.03547  eV     2   --> E    L_3       
     e( 10 - 10) =     18.07726  eV     1   --> A_1  L_1       
     e( 11 - 12) =     36.16758  eV     2   --> E    L_3       
     e( 13 - 13) =     39.20175  eV     1   --> A_1  L_1       

 **************************************************************************

 **************************************************************************

                    xk=(   0.22500,   0.22500,   0.22500  )

     Band symmetry, C_3v (3m)   point group:

     e(  1 -  1) =    -68.97625  eV     1   --> A_1  L_1       
     e(  2 -  2) =    -35.06883  eV     1   --> A_1  L_1       
     e(  3 -  4) =    -34.86659  eV     2   --> E    L_3       
     e(  5 -  5) =     12.48264  eV     1   --> A_1  L_1       
     e(  6 -  7) =     15.85071  eV     2   --> E    L_3       
     e(  8 -  9) =     18.06158  eV     2   --> E    L_3       
     e( 10 - 10) =     18.46839  eV     1   --> A_1  L_1       
     e( 11 - 12) =     35.17868  eV     2   --> E    L_3       
     e( 13 - 13) =     37.83779  eV     1   --> A_1  L_1       

 **************************************************************************

 **************************************************************************

                    xk=(   0.25000,   0.25000,   0.25000  )

     Band symmetry, C_3v (3m)   point group:

     e(  1 -  1) =    -68.96917  eV     1   --> A_1  L_1       
     e(  2 -  2) =    -35.09933  eV     1   --> A_1  L_1       
     e(  3 -  4) =    -34.87687  eV     2   --> E    L_3       
     e(  5 -  5) =     13.01977  eV     1   --> A_1  L_1       
     e(  6 -  7) =     15.72612  eV     2   --> E    L_3       
     e(  8 -  9) =     18.09454  eV     2   --> E    L_3       
     e( 10 - 10) =     18.90404  eV     1   --> A_1  L_1       
     e( 11 - 12) =     34.22138  eV     2   --> E    L_3       
     e( 13 - 13) =     36.53488  eV     1   --> A_1  L_1       

 **************************************************************************

 **************************************************************************

                    xk=(   0.27500,   0.27500,   0.27500  )

     Band symmetry, C_3v (3m)   point group:

     e(  1 -  1) =    -68.96252  eV     1   --> A_1  L_1       
     e(  2 -  2) =    -35.12426  eV     1   --> A_1  L_1       
     e(  3 -  4) =    -34.88842  eV     2   --> E    L_3       
     e(  5 -  5) =     13.55446  eV     1   --> A_1  L_1       
     e(  6 -  7) =     15.61139  eV     2   --> E    L_3       
     e(  8 -  9) =     18.13170  eV     2   --> E    L_3       
     e( 10 - 10) =     19.38906  eV     1   --> A_1  L_1       
     e( 11 - 12) =     33.30048  eV     2   --> E    L_3       
     e( 13 - 13) =     35.30474  eV     1   --> A_1  L_1       

 **************************************************************************

 **************************************************************************

                    xk=(   0.30000,   0.30000,   0.30000  )

     Band symmetry, C_3v (3m)   point group:

     e(  1 -  1) =    -68.95650  eV     1   --> A_1  L_1       
     e(  2 -  2) =    -35.14218  eV     1   --> A_1  L_1       
     e(  3 -  4) =    -34.90137  eV     2   --> E    L_3       
     e(  5 -  5) =     14.06504  eV     1   --> A_1  L_1       
     e(  6 -  7) =     15.51124  eV     2   --> E    L_3       
     e(  8 -  9) =     18.17056  eV     2   --> E    L_3       
     e( 10 - 10) =     19.93155  eV     1   --> A_1  L_1       
     e( 11 - 12) =     32.41878  eV     2   --> E    L_3       
     e( 13 - 13) =     34.15862  eV     1   --> A_1  L_1       

 **************************************************************************

 **************************************************************************

                    xk=(   0.32500,   0.32500,   0.32500  )

     Band symmetry, C_3v (3m)   point group:

     e(  1 -  1) =    -68.95131  eV     1   --> A_1  L_1       
     e(  2 -  2) =    -35.15283  eV     1   --> A_1  L_1       
     e(  3 -  4) =    -34.91564  eV     2   --> E    L_3       
     e(  5 -  5) =     14.52794  eV     1   --> A_1  L_1       
     e(  6 -  7) =     15.42960  eV     2   --> E    L_3       
     e(  8 -  9) =     18.20834  eV     2   --> E    L_3       
     e( 10 - 10) =     20.54066  eV     1   --> A_1  L_1       
     e( 11 - 12) =     31.57866  eV     2   --> E    L_3       
     e( 13 - 13) =     33.10686  eV     1   --> A_1  L_1       

 **************************************************************************

 **************************************************************************

                    xk=(   0.35000,   0.35000,   0.35000  )

     Band symmetry, C_3v (3m)   point group:

     e(  1 -  1) =    -68.94692  eV     1   --> A_1  L_1       
     e(  2 -  2) =    -35.15545  eV     1   --> A_1  L_1       
     e(  3 -  4) =    -34.93064  eV     2   --> E    L_3       
     e(  5 -  5) =     14.92052  eV     1   --> A_1  L_1       
     e(  6 -  7) =     15.36890  eV     2   --> E    L_3       
     e(  8 -  9) =     18.24398  eV     2   --> E    L_3       
     e( 10 - 10) =     21.22789  eV     1   --> A_1  L_1       
     e( 11 - 12) =     30.78120  eV     2   --> E    L_3       
     e( 13 - 13) =     32.15925  eV     1   --> A_1  L_1       

 **************************************************************************

 **************************************************************************

                    xk=(   0.37500,   0.37500,   0.37500  )

     Band symmetry, C_3v (3m)   point group:

     e(  1 -  1) =    -68.94333  eV     1   --> A_1  L_1       
     e(  2 -  2) =    -35.14977  eV     1   --> A_1  L_1       
     e(  3 -  4) =    -34.94618  eV     2   --> E    L_3       
     e(  5 -  5) =     15.22544  eV     1   --> A_1  L_1       
     e(  6 -  7) =     15.33045  eV     2   --> E    L_3       
     e(  8 -  9) =     18.27601  eV     2   --> E    L_3       
     e( 10 - 10) =     22.00147  eV     1   --> A_1  L_1       
     e( 11 - 12) =     30.02764  eV     2   --> E    L_3       
     e( 13 - 13) =     31.32317  eV     1   --> A_1  L_1       

 **************************************************************************

 **************************************************************************

                    xk=(   0.40000,   0.40000,   0.40000  )

     Band symmetry, C_3v (3m)   point group:

     e(  1 -  1) =    -68.94072  eV     1   --> A_1  L_1       
     e(  2 -  2) =    -35.13680  eV     1   --> A_1  L_1       
     e(  3 -  4) =    -34.96272  eV     2   --> E    L_3       
     e(  5 -  6) =     15.31379  eV     2   --> E    L_3       
     e(  7 -  7) =     15.43323  eV     1   --> A_1  L_1       
     e(  8 -  9) =     18.30305  eV     2   --> E    L_3       
     e( 10 - 10) =     22.86413  eV     1   --> A_1  L_1       
     e( 11 - 12) =     29.31881  eV     2   --> E    L_3       
     e( 13 - 13) =     30.60335  eV     1   --> A_1  L_1       

 **************************************************************************

 **************************************************************************

                    xk=(   0.42500,   0.42500,   0.42500  )

     Band symmetry, C_3v (3m)   point group:

     e(  1 -  1) =    -68.93890  eV     1   --> A_1  L_1       
     e(  2 -  2) =    -35.11699  eV     1   --> A_1  L_1       
     e(  3 -  4) =    -34.97955  eV     2   --> E    L_3       
     e(  5 -  6) =     15.31834  eV     2   --> E    L_3       
     e(  7 -  7) =     15.54471  eV     1   --> A_1  L_1       
     e(  8 -  9) =     18.32459  eV     2   --> E    L_3       
     e( 10 - 10) =     23.81324  eV     1   --> A_1  L_1       
     e( 11 - 12) =     28.65602  eV     2   --> E    L_3       
     e( 13 - 13) =     30.00256  eV     1   --> A_1  L_1       

 **************************************************************************

 **************************************************************************

                    xk=(   0.45000,   0.45000,   0.45000  )

     Band symmetry, C_3v (3m)   point group:

     e(  1 -  1) =    -68.93782  eV     1   --> A_1  L_1       
     e(  2 -  2) =    -35.09161  eV     1   --> A_1  L_1       
     e(  3 -  4) =    -34.99667  eV     2   --> E    L_3       
     e(  5 -  6) =     15.34164  eV     2   --> E    L_3       
     e(  7 -  7) =     15.56976  eV     1   --> A_1  L_1       
     e(  8 -  9) =     18.34022  eV     2   --> E    L_3       
     e( 10 - 10) =     24.83819  eV     1   --> A_1  L_1       
     e( 11 - 12) =     28.04084  eV     2   --> E    L_3       
     e( 13 - 13) =     29.52275  eV     1   --> A_1  L_1       

 **************************************************************************

 **************************************************************************

                    xk=(   0.47500,   0.47500,   0.47500  )

     Band symmetry, C_3v (3m)   point group:

     e(  1 -  1) =    -68.93738  eV     1   --> A_1  L_1       
     e(  2 -  2) =    -35.06247  eV     1   --> A_1  L_1       
     e(  3 -  4) =    -35.01382  eV     2   --> E    L_3       
     e(  5 -  6) =     15.38072  eV     2   --> E    L_3       
     e(  7 -  7) =     15.52482  eV     1   --> A_1  L_1       
     e(  8 -  9) =     18.34942  eV     2   --> E    L_3       
     e( 10 - 10) =     25.91435  eV     1   --> A_1  L_1       
     e( 11 - 12) =     27.47544  eV     2   --> E    L_3       
     e( 13 - 13) =     29.17459  eV     1   --> A_1  L_1       

 **************************************************************************

 **************************************************************************

                    xk=(   0.50000,   0.50000,   0.50000  )

     point group T_d (-43m) 
     there are  5 classes
     the character table:

       E     8C3   3C2   6S4   6s_d 
A_1    1.00  1.00  1.00  1.00  1.00
A_2    1.00  1.00  1.00 -1.00 -1.00
E      2.00 -1.00  2.00  0.00  0.00
T_1    3.00  0.00 -1.00  1.00 -1.00
T_2    3.00  0.00 -1.00 -1.00  1.00

     the symmetry operations in each class and the name of the first element:

     E        1
                                                                 
     8C3      5    7    8    6   12    9   10   11
                                                                 
     3C2      2    3    4
                                                                 
     6S4     15   16   20   19   23   24
                                                                 
     6s_d    13   14   17   18   21   22
                                                                 

     Band symmetry, T_d (-43m)  point group:

     e(  1 -  1) =    -68.93725  eV     1   --> A_1  G_1  P_1  
     e(  2 -  4) =    -35.03045  eV     3   --> T_2  G_15 P_4  
     e(  5 -  7) =     15.43156  eV     3   --> T_2  G_15 P_4  
     e(  8 -  9) =     18.35259  eV     2   --> E    G_12 P_3  
     e( 10 - 12) =     26.96322  eV     3   --> T_2  G_15 P_4  
     e( 13 - 13) =     29.01839  eV     1   --> A_1  G_1  P_1  

 **************************************************************************

     BANDS        :      1.63s CPU      2.34s WALL


   This run was terminated on:  16: 7: 2  22Sep2023            

=------------------------------------------------------------------------------=
   JOB DONE.
=------------------------------------------------------------------------------=
