
     Program PWSCF v.7.1 starts on 22Sep2023 at 16: 6:57 

     This program is part of the open-source Quantum ESPRESSO suite
     for quantum simulation of materials; please cite
         "P. Giannozzi et al., J. Phys.:Condens. Matter 21 395502 (2009);
         "P. Giannozzi et al., J. Phys.:Condens. Matter 29 465901 (2017);
         "P. Giannozzi et al., J. Chem. Phys. 152 154105 (2020);
          URL http://www.quantum-espresso.org", 
     in publications or presentations arising from this work. More details at
     http://www.quantum-espresso.org/quote

     Parallel version (MPI & OpenMP), running on      10 processor cores
     Number of MPI processes:                10
     Threads/MPI process:                     1

     MPI processes distributed on     1 nodes
     11684 MiB available memory on the printing compute node when the environment starts

     Waiting for input...
     Reading input from standard input

     Current dimensions of program PWSCF are:
     Max number of different atomic species (ntypx) = 10
     Max number of k-points (npk) =  40000
     Max angular momentum in pseudopotentials (lmaxx) =  4

     Atomic positions and unit cell read from directory:
     ./work/pwscf.save/

     file Fe.pbe-spn-kjpaw_psl.1.0.0.UPF: wavefunction(s)  3P 3D renormalized
     Message from routine setup:
     using ibrav=0 with symmetry is DISCOURAGED, use correct ibrav instead

     R & G space division:  proc/nbgrp/npool/nimage =      10
     Subspace diagonalization in iterative solution of the eigenvalue problem:
     a serial algorithm will be used


     Parallelization info
     --------------------
     sticks:   dense  smooth     PW     G-vecs:    dense   smooth      PW
     Min          80      46     15                 1436      633     115
     Max          81      47     16                 1439      635     116
     Sum         801     467    151                14363     6339    1157

     Using Slab Decomposition



     bravais-lattice index     =            0
     lattice parameter (alat)  =       5.3669  a.u.
     unit-cell volume          =      77.2938 (a.u.)^3
     number of atoms/cell      =            1
     number of atomic types    =            1
     number of electrons       =        16.00
     number of Kohn-Sham states=           13
     kinetic-energy cutoff     =      71.0000  Ry
     charge density cutoff     =     496.0000  Ry
     Exchange-correlation= SLA  PW   PBX  PBC
                           (   1   4   3   4   0   0   0)

     celldm(1)=   5.366917  celldm(2)=   0.000000  celldm(3)=   0.000000
     celldm(4)=   0.000000  celldm(5)=   0.000000  celldm(6)=   0.000000

     crystal axes: (cart. coord. in units of alat)
               a(1) = (  -0.500000   0.500000   0.500000 )  
               a(2) = (   0.500000  -0.500000   0.500000 )  
               a(3) = (   0.500000   0.500000  -0.500000 )  

     reciprocal axes: (cart. coord. in units 2 pi/alat)
               b(1) = (  0.000000  1.000000  1.000000 )  
               b(2) = (  1.000000  0.000000  1.000000 )  
               b(3) = (  1.000000  1.000000  0.000000 )  


     PseudoPot. # 1 for Fe read from file:
     ./../../pseudo/psl100_PBE/Fe.pbe-spn-kjpaw_psl.1.0.0.UPF
     MD5 check sum: bcb9ab80563fcd4521c5f14da65cef4b
     Pseudo is Projector augmented-wave + core cor, Zval = 16.0
     Generated using 'atomic' code by A. Dal Corso  v.7.2
     Shape of augmentation charge: PSQ
     Using radial grid of 1191 points,  6 beta functions with: 
                l(1) =   0
                l(2) =   0
                l(3) =   1
                l(4) =   1
                l(5) =   2
                l(6) =   2
     Q(r) pseudized with 0 coefficients 


     atomic species   valence    mass     pseudopotential
        Fe            16.00    55.84500     Fe( 1.00)

     48 Sym. Ops., with inversion, found


                                    s                        frac. trans.

      isym =  1     identity                                     

 cryst.   s( 1) = (     1          0          0      )
                  (     0          1          0      )
                  (     0          0          1      )

 cart.    s( 1) = (  1.0000000  0.0000000  0.0000000 )
                  (  0.0000000  1.0000000  0.0000000 )
                  (  0.0000000  0.0000000  1.0000000 )


      isym =  2     180 deg rotation - cart. axis [0,0,1]        

 cryst.   s( 2) = (     0          1          0      )
                  (     1          0          0      )
                  (    -1         -1         -1      )

 cart.    s( 2) = ( -1.0000000  0.0000000  0.0000000 )
                  (  0.0000000 -1.0000000  0.0000000 )
                  (  0.0000000  0.0000000  1.0000000 )


      isym =  3     180 deg rotation - cart. axis [0,1,0]        

 cryst.   s( 3) = (     0          0          1      )
                  (    -1         -1         -1      )
                  (     1          0          0      )

 cart.    s( 3) = ( -1.0000000  0.0000000  0.0000000 )
                  (  0.0000000  1.0000000  0.0000000 )
                  (  0.0000000  0.0000000 -1.0000000 )


      isym =  4     180 deg rotation - cart. axis [1,0,0]        

 cryst.   s( 4) = (    -1         -1         -1      )
                  (     0          0          1      )
                  (     0          1          0      )

 cart.    s( 4) = (  1.0000000  0.0000000  0.0000000 )
                  (  0.0000000 -1.0000000  0.0000000 )
                  (  0.0000000  0.0000000 -1.0000000 )


      isym =  5     180 deg rotation - cart. axis [1,1,0]        

 cryst.   s( 5) = (    -1          0          0      )
                  (     0         -1          0      )
                  (     1          1          1      )

 cart.    s( 5) = (  0.0000000  1.0000000  0.0000000 )
                  (  1.0000000  0.0000000  0.0000000 )
                  (  0.0000000  0.0000000 -1.0000000 )


      isym =  6     180 deg rotation - cart. axis [1,-1,0]       

 cryst.   s( 6) = (     0         -1          0      )
                  (    -1          0          0      )
                  (     0          0         -1      )

 cart.    s( 6) = (  0.0000000 -1.0000000  0.0000000 )
                  ( -1.0000000  0.0000000  0.0000000 )
                  (  0.0000000  0.0000000 -1.0000000 )


      isym =  7      90 deg rotation - cart. axis [0,0,-1]       

 cryst.   s( 7) = (     1          1          1      )
                  (     0          0         -1      )
                  (    -1          0          0      )

 cart.    s( 7) = (  0.0000000  1.0000000  0.0000000 )
                  ( -1.0000000  0.0000000  0.0000000 )
                  (  0.0000000  0.0000000  1.0000000 )


      isym =  8      90 deg rotation - cart. axis [0,0,1]        

 cryst.   s( 8) = (     0          0         -1      )
                  (     1          1          1      )
                  (     0         -1          0      )

 cart.    s( 8) = (  0.0000000 -1.0000000  0.0000000 )
                  (  1.0000000  0.0000000  0.0000000 )
                  (  0.0000000  0.0000000  1.0000000 )


      isym =  9     180 deg rotation - cart. axis [1,0,1]        

 cryst.   s( 9) = (    -1          0          0      )
                  (     1          1          1      )
                  (     0          0         -1      )

 cart.    s( 9) = (  0.0000000  0.0000000  1.0000000 )
                  (  0.0000000 -1.0000000  0.0000000 )
                  (  1.0000000  0.0000000  0.0000000 )


      isym = 10     180 deg rotation - cart. axis [-1,0,1]       

 cryst.   s(10) = (     0          0         -1      )
                  (     0         -1          0      )
                  (    -1          0          0      )

 cart.    s(10) = (  0.0000000  0.0000000 -1.0000000 )
                  (  0.0000000 -1.0000000  0.0000000 )
                  ( -1.0000000  0.0000000  0.0000000 )


      isym = 11      90 deg rotation - cart. axis [0,1,0]        

 cryst.   s(11) = (     1          1          1      )
                  (    -1          0          0      )
                  (     0         -1          0      )

 cart.    s(11) = (  0.0000000  0.0000000  1.0000000 )
                  (  0.0000000  1.0000000  0.0000000 )
                  ( -1.0000000  0.0000000  0.0000000 )


      isym = 12      90 deg rotation - cart. axis [0,-1,0]       

 cryst.   s(12) = (     0         -1          0      )
                  (     0          0         -1      )
                  (     1          1          1      )

 cart.    s(12) = (  0.0000000  0.0000000 -1.0000000 )
                  (  0.0000000  1.0000000  0.0000000 )
                  (  1.0000000  0.0000000  0.0000000 )


      isym = 13     180 deg rotation - cart. axis [0,1,1]        

 cryst.   s(13) = (     1          1          1      )
                  (     0         -1          0      )
                  (     0          0         -1      )

 cart.    s(13) = ( -1.0000000  0.0000000  0.0000000 )
                  (  0.0000000  0.0000000  1.0000000 )
                  (  0.0000000  1.0000000  0.0000000 )


      isym = 14     180 deg rotation - cart. axis [0,1,-1]       

 cryst.   s(14) = (    -1          0          0      )
                  (     0          0         -1      )
                  (     0         -1          0      )

 cart.    s(14) = ( -1.0000000  0.0000000  0.0000000 )
                  (  0.0000000  0.0000000 -1.0000000 )
                  (  0.0000000 -1.0000000  0.0000000 )


      isym = 15      90 deg rotation - cart. axis [-1,0,0]       

 cryst.   s(15) = (     0         -1          0      )
                  (     1          1          1      )
                  (    -1          0          0      )

 cart.    s(15) = (  1.0000000  0.0000000  0.0000000 )
                  (  0.0000000  0.0000000  1.0000000 )
                  (  0.0000000 -1.0000000  0.0000000 )


      isym = 16      90 deg rotation - cart. axis [1,0,0]        

 cryst.   s(16) = (     0          0         -1      )
                  (    -1          0          0      )
                  (     1          1          1      )

 cart.    s(16) = (  1.0000000  0.0000000  0.0000000 )
                  (  0.0000000  0.0000000 -1.0000000 )
                  (  0.0000000  1.0000000  0.0000000 )


      isym = 17     120 deg rotation - cart. axis [-1,-1,-1]     

 cryst.   s(17) = (     0          0          1      )
                  (     1          0          0      )
                  (     0          1          0      )

 cart.    s(17) = (  0.0000000  1.0000000  0.0000000 )
                  (  0.0000000  0.0000000  1.0000000 )
                  (  1.0000000  0.0000000  0.0000000 )


      isym = 18     120 deg rotation - cart. axis [-1,1,1]       

 cryst.   s(18) = (     1          0          0      )
                  (     0          0          1      )
                  (    -1         -1         -1      )

 cart.    s(18) = (  0.0000000 -1.0000000  0.0000000 )
                  (  0.0000000  0.0000000  1.0000000 )
                  ( -1.0000000  0.0000000  0.0000000 )


      isym = 19     120 deg rotation - cart. axis [1,1,-1]       

 cryst.   s(19) = (     0          1          0      )
                  (    -1         -1         -1      )
                  (     0          0          1      )

 cart.    s(19) = (  0.0000000  1.0000000  0.0000000 )
                  (  0.0000000  0.0000000 -1.0000000 )
                  ( -1.0000000  0.0000000  0.0000000 )


      isym = 20     120 deg rotation - cart. axis [1,-1,1]       

 cryst.   s(20) = (    -1         -1         -1      )
                  (     0          1          0      )
                  (     1          0          0      )

 cart.    s(20) = (  0.0000000 -1.0000000  0.0000000 )
                  (  0.0000000  0.0000000 -1.0000000 )
                  (  1.0000000  0.0000000  0.0000000 )


      isym = 21     120 deg rotation - cart. axis [1,1,1]        

 cryst.   s(21) = (     0          1          0      )
                  (     0          0          1      )
                  (     1          0          0      )

 cart.    s(21) = (  0.0000000  0.0000000  1.0000000 )
                  (  1.0000000  0.0000000  0.0000000 )
                  (  0.0000000  1.0000000  0.0000000 )


      isym = 22     120 deg rotation - cart. axis [-1,1,-1]      

 cryst.   s(22) = (     0          0          1      )
                  (     0          1          0      )
                  (    -1         -1         -1      )

 cart.    s(22) = (  0.0000000  0.0000000  1.0000000 )
                  ( -1.0000000  0.0000000  0.0000000 )
                  (  0.0000000 -1.0000000  0.0000000 )


      isym = 23     120 deg rotation - cart. axis [1,-1,-1]      

 cryst.   s(23) = (     1          0          0      )
                  (    -1         -1         -1      )
                  (     0          1          0      )

 cart.    s(23) = (  0.0000000  0.0000000 -1.0000000 )
                  ( -1.0000000  0.0000000  0.0000000 )
                  (  0.0000000  1.0000000  0.0000000 )


      isym = 24     120 deg rotation - cart. axis [-1,-1,1]      

 cryst.   s(24) = (    -1         -1         -1      )
                  (     1          0          0      )
                  (     0          0          1      )

 cart.    s(24) = (  0.0000000  0.0000000 -1.0000000 )
                  (  1.0000000  0.0000000  0.0000000 )
                  (  0.0000000 -1.0000000  0.0000000 )


      isym = 25     inversion                                    

 cryst.   s(25) = (    -1          0          0      )
                  (     0         -1          0      )
                  (     0          0         -1      )

 cart.    s(25) = ( -1.0000000  0.0000000  0.0000000 )
                  (  0.0000000 -1.0000000  0.0000000 )
                  (  0.0000000  0.0000000 -1.0000000 )


      isym = 26     inv. 180 deg rotation - cart. axis [0,0,1]   

 cryst.   s(26) = (     0         -1          0      )
                  (    -1          0          0      )
                  (     1          1          1      )

 cart.    s(26) = (  1.0000000  0.0000000  0.0000000 )
                  (  0.0000000  1.0000000  0.0000000 )
                  (  0.0000000  0.0000000 -1.0000000 )


      isym = 27     inv. 180 deg rotation - cart. axis [0,1,0]   

 cryst.   s(27) = (     0          0         -1      )
                  (     1          1          1      )
                  (    -1          0          0      )

 cart.    s(27) = (  1.0000000  0.0000000  0.0000000 )
                  (  0.0000000 -1.0000000  0.0000000 )
                  (  0.0000000  0.0000000  1.0000000 )


      isym = 28     inv. 180 deg rotation - cart. axis [1,0,0]   

 cryst.   s(28) = (     1          1          1      )
                  (     0          0         -1      )
                  (     0         -1          0      )

 cart.    s(28) = ( -1.0000000  0.0000000  0.0000000 )
                  (  0.0000000  1.0000000  0.0000000 )
                  (  0.0000000  0.0000000  1.0000000 )


      isym = 29     inv. 180 deg rotation - cart. axis [1,1,0]   

 cryst.   s(29) = (     1          0          0      )
                  (     0          1          0      )
                  (    -1         -1         -1      )

 cart.    s(29) = (  0.0000000 -1.0000000  0.0000000 )
                  ( -1.0000000  0.0000000  0.0000000 )
                  (  0.0000000  0.0000000  1.0000000 )


      isym = 30     inv. 180 deg rotation - cart. axis [1,-1,0]  

 cryst.   s(30) = (     0          1          0      )
                  (     1          0          0      )
                  (     0          0          1      )

 cart.    s(30) = (  0.0000000  1.0000000  0.0000000 )
                  (  1.0000000  0.0000000  0.0000000 )
                  (  0.0000000  0.0000000  1.0000000 )


      isym = 31     inv.  90 deg rotation - cart. axis [0,0,-1]  

 cryst.   s(31) = (    -1         -1         -1      )
                  (     0          0          1      )
                  (     1          0          0      )

 cart.    s(31) = (  0.0000000 -1.0000000  0.0000000 )
                  (  1.0000000  0.0000000  0.0000000 )
                  (  0.0000000  0.0000000 -1.0000000 )


      isym = 32     inv.  90 deg rotation - cart. axis [0,0,1]   

 cryst.   s(32) = (     0          0          1      )
                  (    -1         -1         -1      )
                  (     0          1          0      )

 cart.    s(32) = (  0.0000000  1.0000000  0.0000000 )
                  ( -1.0000000  0.0000000  0.0000000 )
                  (  0.0000000  0.0000000 -1.0000000 )


      isym = 33     inv. 180 deg rotation - cart. axis [1,0,1]   

 cryst.   s(33) = (     1          0          0      )
                  (    -1         -1         -1      )
                  (     0          0          1      )

 cart.    s(33) = (  0.0000000  0.0000000 -1.0000000 )
                  (  0.0000000  1.0000000  0.0000000 )
                  ( -1.0000000  0.0000000  0.0000000 )


      isym = 34     inv. 180 deg rotation - cart. axis [-1,0,1]  

 cryst.   s(34) = (     0          0          1      )
                  (     0          1          0      )
                  (     1          0          0      )

 cart.    s(34) = (  0.0000000  0.0000000  1.0000000 )
                  (  0.0000000  1.0000000  0.0000000 )
                  (  1.0000000  0.0000000  0.0000000 )


      isym = 35     inv.  90 deg rotation - cart. axis [0,1,0]   

 cryst.   s(35) = (    -1         -1         -1      )
                  (     1          0          0      )
                  (     0          1          0      )

 cart.    s(35) = (  0.0000000  0.0000000 -1.0000000 )
                  (  0.0000000 -1.0000000  0.0000000 )
                  (  1.0000000  0.0000000  0.0000000 )


      isym = 36     inv.  90 deg rotation - cart. axis [0,-1,0]  

 cryst.   s(36) = (     0          1          0      )
                  (     0          0          1      )
                  (    -1         -1         -1      )

 cart.    s(36) = (  0.0000000  0.0000000  1.0000000 )
                  (  0.0000000 -1.0000000  0.0000000 )
                  ( -1.0000000  0.0000000  0.0000000 )


      isym = 37     inv. 180 deg rotation - cart. axis [0,1,1]   

 cryst.   s(37) = (    -1         -1         -1      )
                  (     0          1          0      )
                  (     0          0          1      )

 cart.    s(37) = (  1.0000000  0.0000000  0.0000000 )
                  (  0.0000000  0.0000000 -1.0000000 )
                  (  0.0000000 -1.0000000  0.0000000 )


      isym = 38     inv. 180 deg rotation - cart. axis [0,1,-1]  

 cryst.   s(38) = (     1          0          0      )
                  (     0          0          1      )
                  (     0          1          0      )

 cart.    s(38) = (  1.0000000  0.0000000  0.0000000 )
                  (  0.0000000  0.0000000  1.0000000 )
                  (  0.0000000  1.0000000  0.0000000 )


      isym = 39     inv.  90 deg rotation - cart. axis [-1,0,0]  

 cryst.   s(39) = (     0          1          0      )
                  (    -1         -1         -1      )
                  (     1          0          0      )

 cart.    s(39) = ( -1.0000000  0.0000000  0.0000000 )
                  (  0.0000000  0.0000000 -1.0000000 )
                  (  0.0000000  1.0000000  0.0000000 )


      isym = 40     inv.  90 deg rotation - cart. axis [1,0,0]   

 cryst.   s(40) = (     0          0          1      )
                  (     1          0          0      )
                  (    -1         -1         -1      )

 cart.    s(40) = ( -1.0000000  0.0000000  0.0000000 )
                  (  0.0000000  0.0000000  1.0000000 )
                  (  0.0000000 -1.0000000  0.0000000 )


      isym = 41     inv. 120 deg rotation - cart. axis [-1,-1,-1]

 cryst.   s(41) = (     0          0         -1      )
                  (    -1          0          0      )
                  (     0         -1          0      )

 cart.    s(41) = (  0.0000000 -1.0000000  0.0000000 )
                  (  0.0000000  0.0000000 -1.0000000 )
                  ( -1.0000000  0.0000000  0.0000000 )


      isym = 42     inv. 120 deg rotation - cart. axis [-1,1,1]  

 cryst.   s(42) = (    -1          0          0      )
                  (     0          0         -1      )
                  (     1          1          1      )

 cart.    s(42) = (  0.0000000  1.0000000  0.0000000 )
                  (  0.0000000  0.0000000 -1.0000000 )
                  (  1.0000000  0.0000000  0.0000000 )


      isym = 43     inv. 120 deg rotation - cart. axis [1,1,-1]  

 cryst.   s(43) = (     0         -1          0      )
                  (     1          1          1      )
                  (     0          0         -1      )

 cart.    s(43) = (  0.0000000 -1.0000000  0.0000000 )
                  (  0.0000000  0.0000000  1.0000000 )
                  (  1.0000000  0.0000000  0.0000000 )


      isym = 44     inv. 120 deg rotation - cart. axis [1,-1,1]  

 cryst.   s(44) = (     1          1          1      )
                  (     0         -1          0      )
                  (    -1          0          0      )

 cart.    s(44) = (  0.0000000  1.0000000  0.0000000 )
                  (  0.0000000  0.0000000  1.0000000 )
                  ( -1.0000000  0.0000000  0.0000000 )


      isym = 45     inv. 120 deg rotation - cart. axis [1,1,1]   

 cryst.   s(45) = (     0         -1          0      )
                  (     0          0         -1      )
                  (    -1          0          0      )

 cart.    s(45) = (  0.0000000  0.0000000 -1.0000000 )
                  ( -1.0000000  0.0000000  0.0000000 )
                  (  0.0000000 -1.0000000  0.0000000 )


      isym = 46     inv. 120 deg rotation - cart. axis [-1,1,-1] 

 cryst.   s(46) = (     0          0         -1      )
                  (     0         -1          0      )
                  (     1          1          1      )

 cart.    s(46) = (  0.0000000  0.0000000 -1.0000000 )
                  (  1.0000000  0.0000000  0.0000000 )
                  (  0.0000000  1.0000000  0.0000000 )


      isym = 47     inv. 120 deg rotation - cart. axis [1,-1,-1] 

 cryst.   s(47) = (    -1          0          0      )
                  (     1          1          1      )
                  (     0         -1          0      )

 cart.    s(47) = (  0.0000000  0.0000000  1.0000000 )
                  (  1.0000000  0.0000000  0.0000000 )
                  (  0.0000000 -1.0000000  0.0000000 )


      isym = 48     inv. 120 deg rotation - cart. axis [-1,-1,1] 

 cryst.   s(48) = (     1          1          1      )
                  (    -1          0          0      )
                  (     0          0         -1      )

 cart.    s(48) = (  0.0000000  0.0000000  1.0000000 )
                  ( -1.0000000  0.0000000  0.0000000 )
                  (  0.0000000  1.0000000  0.0000000 )


   Cartesian axes

     site n.     atom                  positions (alat units)
         1           Fe  tau(   1) = (   0.0000000   0.0000000   0.0000000  )

   Crystallographic axes

     site n.     atom                  positions (cryst. coord.)
         1           Fe  tau(   1) = (  0.0000000  0.0000000  0.0000000  )

     number of k points=    81  Methfessel-Paxton smearing, width (Ry)=  0.0100
                       cart. coord. in units 2pi/alat
        k(    1) = (   0.0000000   0.0000000   0.0000000), wk =   0.0246914
        k(    2) = (   0.0000000   0.0500000   0.0000000), wk =   0.0246914
        k(    3) = (   0.0000000   0.1000000   0.0000000), wk =   0.0246914
        k(    4) = (   0.0000000   0.1500000   0.0000000), wk =   0.0246914
        k(    5) = (   0.0000000   0.2000000   0.0000000), wk =   0.0246914
        k(    6) = (   0.0000000   0.2500000   0.0000000), wk =   0.0246914
        k(    7) = (   0.0000000   0.3000000   0.0000000), wk =   0.0246914
        k(    8) = (   0.0000000   0.3500000   0.0000000), wk =   0.0246914
        k(    9) = (   0.0000000   0.4000000   0.0000000), wk =   0.0246914
        k(   10) = (   0.0000000   0.4500000   0.0000000), wk =   0.0246914
        k(   11) = (   0.0000000   0.5000000   0.0000000), wk =   0.0246914
        k(   12) = (   0.0000000   0.5500000   0.0000000), wk =   0.0246914
        k(   13) = (   0.0000000   0.6000000   0.0000000), wk =   0.0246914
        k(   14) = (   0.0000000   0.6500000   0.0000000), wk =   0.0246914
        k(   15) = (   0.0000000   0.7000000   0.0000000), wk =   0.0246914
        k(   16) = (   0.0000000   0.7500000   0.0000000), wk =   0.0246914
        k(   17) = (   0.0000000   0.8000000   0.0000000), wk =   0.0246914
        k(   18) = (   0.0000000   0.8500000   0.0000000), wk =   0.0246914
        k(   19) = (   0.0000000   0.9000000   0.0000000), wk =   0.0246914
        k(   20) = (   0.0000000   0.9500000   0.0000000), wk =   0.0246914
        k(   21) = (   0.0000000   1.0000000   0.0000000), wk =   0.0246914
        k(   22) = (   0.0250000   0.9750000   0.0000000), wk =   0.0246914
        k(   23) = (   0.0500000   0.9500000   0.0000000), wk =   0.0246914
        k(   24) = (   0.0750000   0.9250000   0.0000000), wk =   0.0246914
        k(   25) = (   0.1000000   0.9000000   0.0000000), wk =   0.0246914
        k(   26) = (   0.1250000   0.8750000   0.0000000), wk =   0.0246914
        k(   27) = (   0.1500000   0.8500000   0.0000000), wk =   0.0246914
        k(   28) = (   0.1750000   0.8250000   0.0000000), wk =   0.0246914
        k(   29) = (   0.2000000   0.8000000   0.0000000), wk =   0.0246914
        k(   30) = (   0.2250000   0.7750000   0.0000000), wk =   0.0246914
        k(   31) = (   0.2500000   0.7500000   0.0000000), wk =   0.0246914
        k(   32) = (   0.2750000   0.7250000   0.0000000), wk =   0.0246914
        k(   33) = (   0.3000000   0.7000000   0.0000000), wk =   0.0246914
        k(   34) = (   0.3250000   0.6750000   0.0000000), wk =   0.0246914
        k(   35) = (   0.3500000   0.6500000   0.0000000), wk =   0.0246914
        k(   36) = (   0.3750000   0.6250000   0.0000000), wk =   0.0246914
        k(   37) = (   0.4000000   0.6000000   0.0000000), wk =   0.0246914
        k(   38) = (   0.4250000   0.5750000   0.0000000), wk =   0.0246914
        k(   39) = (   0.4500000   0.5500000   0.0000000), wk =   0.0246914
        k(   40) = (   0.4750000   0.5250000   0.0000000), wk =   0.0246914
        k(   41) = (   0.5000000   0.5000000   0.0000000), wk =   0.0246914
        k(   42) = (   0.4750000   0.4750000   0.0000000), wk =   0.0246914
        k(   43) = (   0.4500000   0.4500000   0.0000000), wk =   0.0246914
        k(   44) = (   0.4250000   0.4250000   0.0000000), wk =   0.0246914
        k(   45) = (   0.4000000   0.4000000   0.0000000), wk =   0.0246914
        k(   46) = (   0.3750000   0.3750000   0.0000000), wk =   0.0246914
        k(   47) = (   0.3500000   0.3500000   0.0000000), wk =   0.0246914
        k(   48) = (   0.3250000   0.3250000   0.0000000), wk =   0.0246914
        k(   49) = (   0.3000000   0.3000000   0.0000000), wk =   0.0246914
        k(   50) = (   0.2750000   0.2750000   0.0000000), wk =   0.0246914
        k(   51) = (   0.2500000   0.2500000   0.0000000), wk =   0.0246914
        k(   52) = (   0.2250000   0.2250000   0.0000000), wk =   0.0246914
        k(   53) = (   0.2000000   0.2000000   0.0000000), wk =   0.0246914
        k(   54) = (   0.1750000   0.1750000   0.0000000), wk =   0.0246914
        k(   55) = (   0.1500000   0.1500000   0.0000000), wk =   0.0246914
        k(   56) = (   0.1250000   0.1250000   0.0000000), wk =   0.0246914
        k(   57) = (   0.1000000   0.1000000   0.0000000), wk =   0.0246914
        k(   58) = (   0.0750000   0.0750000   0.0000000), wk =   0.0246914
        k(   59) = (   0.0500000   0.0500000   0.0000000), wk =   0.0246914
        k(   60) = (   0.0250000   0.0250000   0.0000000), wk =   0.0246914
        k(   61) = (   0.0000000   0.0000000   0.0000000), wk =   0.0246914
        k(   62) = (   0.0250000   0.0250000   0.0250000), wk =   0.0246914
        k(   63) = (   0.0500000   0.0500000   0.0500000), wk =   0.0246914
        k(   64) = (   0.0750000   0.0750000   0.0750000), wk =   0.0246914
        k(   65) = (   0.1000000   0.1000000   0.1000000), wk =   0.0246914
        k(   66) = (   0.1250000   0.1250000   0.1250000), wk =   0.0246914
        k(   67) = (   0.1500000   0.1500000   0.1500000), wk =   0.0246914
        k(   68) = (   0.1750000   0.1750000   0.1750000), wk =   0.0246914
        k(   69) = (   0.2000000   0.2000000   0.2000000), wk =   0.0246914
        k(   70) = (   0.2250000   0.2250000   0.2250000), wk =   0.0246914
        k(   71) = (   0.2500000   0.2500000   0.2500000), wk =   0.0246914
        k(   72) = (   0.2750000   0.2750000   0.2750000), wk =   0.0246914
        k(   73) = (   0.3000000   0.3000000   0.3000000), wk =   0.0246914
        k(   74) = (   0.3250000   0.3250000   0.3250000), wk =   0.0246914
        k(   75) = (   0.3500000   0.3500000   0.3500000), wk =   0.0246914
        k(   76) = (   0.3750000   0.3750000   0.3750000), wk =   0.0246914
        k(   77) = (   0.4000000   0.4000000   0.4000000), wk =   0.0246914
        k(   78) = (   0.4250000   0.4250000   0.4250000), wk =   0.0246914
        k(   79) = (   0.4500000   0.4500000   0.4500000), wk =   0.0246914
        k(   80) = (   0.4750000   0.4750000   0.4750000), wk =   0.0246914
        k(   81) = (   0.5000000   0.5000000   0.5000000), wk =   0.0246914

                       cryst. coord.
        k(    1) = (   0.0000000   0.0000000   0.0000000), wk =   0.0246914
        k(    2) = (   0.0250000  -0.0250000   0.0250000), wk =   0.0246914
        k(    3) = (   0.0500000  -0.0500000   0.0500000), wk =   0.0246914
        k(    4) = (   0.0750000  -0.0750000   0.0750000), wk =   0.0246914
        k(    5) = (   0.1000000  -0.1000000   0.1000000), wk =   0.0246914
        k(    6) = (   0.1250000  -0.1250000   0.1250000), wk =   0.0246914
        k(    7) = (   0.1500000  -0.1500000   0.1500000), wk =   0.0246914
        k(    8) = (   0.1750000  -0.1750000   0.1750000), wk =   0.0246914
        k(    9) = (   0.2000000  -0.2000000   0.2000000), wk =   0.0246914
        k(   10) = (   0.2250000  -0.2250000   0.2250000), wk =   0.0246914
        k(   11) = (   0.2500000  -0.2500000   0.2500000), wk =   0.0246914
        k(   12) = (   0.2750000  -0.2750000   0.2750000), wk =   0.0246914
        k(   13) = (   0.3000000  -0.3000000   0.3000000), wk =   0.0246914
        k(   14) = (   0.3250000  -0.3250000   0.3250000), wk =   0.0246914
        k(   15) = (   0.3500000  -0.3500000   0.3500000), wk =   0.0246914
        k(   16) = (   0.3750000  -0.3750000   0.3750000), wk =   0.0246914
        k(   17) = (   0.4000000  -0.4000000   0.4000000), wk =   0.0246914
        k(   18) = (   0.4250000  -0.4250000   0.4250000), wk =   0.0246914
        k(   19) = (   0.4500000  -0.4500000   0.4500000), wk =   0.0246914
        k(   20) = (   0.4750000  -0.4750000   0.4750000), wk =   0.0246914
        k(   21) = (   0.5000000  -0.5000000   0.5000000), wk =   0.0246914
        k(   22) = (   0.4750000  -0.4750000   0.5000000), wk =   0.0246914
        k(   23) = (   0.4500000  -0.4500000   0.5000000), wk =   0.0246914
        k(   24) = (   0.4250000  -0.4250000   0.5000000), wk =   0.0246914
        k(   25) = (   0.4000000  -0.4000000   0.5000000), wk =   0.0246914
        k(   26) = (   0.3750000  -0.3750000   0.5000000), wk =   0.0246914
        k(   27) = (   0.3500000  -0.3500000   0.5000000), wk =   0.0246914
        k(   28) = (   0.3250000  -0.3250000   0.5000000), wk =   0.0246914
        k(   29) = (   0.3000000  -0.3000000   0.5000000), wk =   0.0246914
        k(   30) = (   0.2750000  -0.2750000   0.5000000), wk =   0.0246914
        k(   31) = (   0.2500000  -0.2500000   0.5000000), wk =   0.0246914
        k(   32) = (   0.2250000  -0.2250000   0.5000000), wk =   0.0246914
        k(   33) = (   0.2000000  -0.2000000   0.5000000), wk =   0.0246914
        k(   34) = (   0.1750000  -0.1750000   0.5000000), wk =   0.0246914
        k(   35) = (   0.1500000  -0.1500000   0.5000000), wk =   0.0246914
        k(   36) = (   0.1250000  -0.1250000   0.5000000), wk =   0.0246914
        k(   37) = (   0.1000000  -0.1000000   0.5000000), wk =   0.0246914
        k(   38) = (   0.0750000  -0.0750000   0.5000000), wk =   0.0246914
        k(   39) = (   0.0500000  -0.0500000   0.5000000), wk =   0.0246914
        k(   40) = (   0.0250000  -0.0250000   0.5000000), wk =   0.0246914
        k(   41) = (   0.0000000   0.0000000   0.5000000), wk =   0.0246914
        k(   42) = (   0.0000000   0.0000000   0.4750000), wk =   0.0246914
        k(   43) = (   0.0000000   0.0000000   0.4500000), wk =   0.0246914
        k(   44) = (   0.0000000   0.0000000   0.4250000), wk =   0.0246914
        k(   45) = (   0.0000000   0.0000000   0.4000000), wk =   0.0246914
        k(   46) = (   0.0000000   0.0000000   0.3750000), wk =   0.0246914
        k(   47) = (   0.0000000   0.0000000   0.3500000), wk =   0.0246914
        k(   48) = (   0.0000000   0.0000000   0.3250000), wk =   0.0246914
        k(   49) = (   0.0000000   0.0000000   0.3000000), wk =   0.0246914
        k(   50) = (   0.0000000   0.0000000   0.2750000), wk =   0.0246914
        k(   51) = (   0.0000000   0.0000000   0.2500000), wk =   0.0246914
        k(   52) = (   0.0000000   0.0000000   0.2250000), wk =   0.0246914
        k(   53) = (   0.0000000   0.0000000   0.2000000), wk =   0.0246914
        k(   54) = (   0.0000000   0.0000000   0.1750000), wk =   0.0246914
        k(   55) = (   0.0000000   0.0000000   0.1500000), wk =   0.0246914
        k(   56) = (   0.0000000   0.0000000   0.1250000), wk =   0.0246914
        k(   57) = (   0.0000000   0.0000000   0.1000000), wk =   0.0246914
        k(   58) = (   0.0000000   0.0000000   0.0750000), wk =   0.0246914
        k(   59) = (   0.0000000   0.0000000   0.0500000), wk =   0.0246914
        k(   60) = (   0.0000000   0.0000000   0.0250000), wk =   0.0246914
        k(   61) = (   0.0000000   0.0000000   0.0000000), wk =   0.0246914
        k(   62) = (   0.0125000   0.0125000   0.0125000), wk =   0.0246914
        k(   63) = (   0.0250000   0.0250000   0.0250000), wk =   0.0246914
        k(   64) = (   0.0375000   0.0375000   0.0375000), wk =   0.0246914
        k(   65) = (   0.0500000   0.0500000   0.0500000), wk =   0.0246914
        k(   66) = (   0.0625000   0.0625000   0.0625000), wk =   0.0246914
        k(   67) = (   0.0750000   0.0750000   0.0750000), wk =   0.0246914
        k(   68) = (   0.0875000   0.0875000   0.0875000), wk =   0.0246914
        k(   69) = (   0.1000000   0.1000000   0.1000000), wk =   0.0246914
        k(   70) = (   0.1125000   0.1125000   0.1125000), wk =   0.0246914
        k(   71) = (   0.1250000   0.1250000   0.1250000), wk =   0.0246914
        k(   72) = (   0.1375000   0.1375000   0.1375000), wk =   0.0246914
        k(   73) = (   0.1500000   0.1500000   0.1500000), wk =   0.0246914
        k(   74) = (   0.1625000   0.1625000   0.1625000), wk =   0.0246914
        k(   75) = (   0.1750000   0.1750000   0.1750000), wk =   0.0246914
        k(   76) = (   0.1875000   0.1875000   0.1875000), wk =   0.0246914
        k(   77) = (   0.2000000   0.2000000   0.2000000), wk =   0.0246914
        k(   78) = (   0.2125000   0.2125000   0.2125000), wk =   0.0246914
        k(   79) = (   0.2250000   0.2250000   0.2250000), wk =   0.0246914
        k(   80) = (   0.2375000   0.2375000   0.2375000), wk =   0.0246914
        k(   81) = (   0.2500000   0.2500000   0.2500000), wk =   0.0246914

     Dense  grid:    14363 G-vectors     FFT dimensions: (  36,  36,  36)

     Smooth grid:     6339 G-vectors     FFT dimensions: (  25,  25,  25)

     Dynamical RAM for                 wfc:       0.02 MB

     Dynamical RAM for     wfc (w. buffer):       1.27 MB

     Dynamical RAM for           str. fact:       0.02 MB

     Dynamical RAM for           local pot:       0.00 MB

     Dynamical RAM for          nlocal pot:       0.02 MB

     Dynamical RAM for                qrad:       1.79 MB

     Dynamical RAM for          rho,v,vnew:       0.18 MB

     Dynamical RAM for           G-vectors:       0.09 MB

     Dynamical RAM for          h,s,v(r/c):       0.03 MB

     Dynamical RAM for          <psi|beta>:       0.00 MB

     Dynamical RAM for                 psi:       0.03 MB

     Dynamical RAM for                hpsi:       0.03 MB

     Dynamical RAM for                spsi:       0.03 MB

     Dynamical RAM for      wfcinit/wfcrot:       0.03 MB

     Dynamical RAM for           addusdens:       4.11 MB

     Estimated static dynamical RAM per process >       3.61 MB

     Estimated max dynamical RAM per process >       7.72 MB

     Estimated total dynamical RAM >      77.19 MB

     Check: negative core charge=   -0.000002

     The potential is recalculated from file :
     ./work/pwscf.save/charge-density

     Starting wfcs are   10 randomized atomic wfcs +    3 random wfcs
     Checking if some PAW data can be deallocated... 

     Band Structure Calculation
     Davidson diagonalization with overlap

     Computing kpt #:     1  of    81
     total cpu time spent up to now is        0.7 secs

     Computing kpt #:     2  of    81
     total cpu time spent up to now is        0.7 secs

     Computing kpt #:     3  of    81
     total cpu time spent up to now is        0.7 secs

     Computing kpt #:     4  of    81
     total cpu time spent up to now is        0.7 secs

     Computing kpt #:     5  of    81
     total cpu time spent up to now is        0.7 secs

     Computing kpt #:     6  of    81
     total cpu time spent up to now is        0.7 secs

     Computing kpt #:     7  of    81
     total cpu time spent up to now is        0.7 secs

     Computing kpt #:     8  of    81
     total cpu time spent up to now is        0.8 secs

     Computing kpt #:     9  of    81
     total cpu time spent up to now is        0.8 secs

     Computing kpt #:    10  of    81
     total cpu time spent up to now is        0.8 secs

     Computing kpt #:    11  of    81
     total cpu time spent up to now is        0.8 secs

     Computing kpt #:    12  of    81
     total cpu time spent up to now is        0.8 secs

     Computing kpt #:    13  of    81
     total cpu time spent up to now is        0.8 secs

     Computing kpt #:    14  of    81
     total cpu time spent up to now is        0.8 secs

     Computing kpt #:    15  of    81
     total cpu time spent up to now is        0.8 secs

     Computing kpt #:    16  of    81
     total cpu time spent up to now is        0.9 secs

     Computing kpt #:    17  of    81
     total cpu time spent up to now is        0.9 secs

     Computing kpt #:    18  of    81
     total cpu time spent up to now is        0.9 secs

     Computing kpt #:    19  of    81
     total cpu time spent up to now is        0.9 secs

     Computing kpt #:    20  of    81
     total cpu time spent up to now is        0.9 secs

     Computing kpt #:    21  of    81
     total cpu time spent up to now is        0.9 secs

     Computing kpt #:    22  of    81
     total cpu time spent up to now is        0.9 secs

     Computing kpt #:    23  of    81
     total cpu time spent up to now is        0.9 secs

     Computing kpt #:    24  of    81
     total cpu time spent up to now is        0.9 secs

     Computing kpt #:    25  of    81
     total cpu time spent up to now is        1.0 secs

     Computing kpt #:    26  of    81
     total cpu time spent up to now is        1.0 secs

     Computing kpt #:    27  of    81
     total cpu time spent up to now is        1.0 secs

     Computing kpt #:    28  of    81
     total cpu time spent up to now is        1.0 secs

     Computing kpt #:    29  of    81
     total cpu time spent up to now is        1.0 secs

     Computing kpt #:    30  of    81
     total cpu time spent up to now is        1.0 secs

     Computing kpt #:    31  of    81
     total cpu time spent up to now is        1.0 secs

     Computing kpt #:    32  of    81
     total cpu time spent up to now is        1.0 secs

     Computing kpt #:    33  of    81
     total cpu time spent up to now is        1.0 secs

     Computing kpt #:    34  of    81
     total cpu time spent up to now is        1.1 secs

     Computing kpt #:    35  of    81
     total cpu time spent up to now is        1.1 secs

     Computing kpt #:    36  of    81
     total cpu time spent up to now is        1.1 secs

     Computing kpt #:    37  of    81
     total cpu time spent up to now is        1.1 secs

     Computing kpt #:    38  of    81
     total cpu time spent up to now is        1.1 secs

     Computing kpt #:    39  of    81
     total cpu time spent up to now is        1.1 secs

     Computing kpt #:    40  of    81
     total cpu time spent up to now is        1.1 secs

     Computing kpt #:    41  of    81
     total cpu time spent up to now is        1.1 secs

     Computing kpt #:    42  of    81
     total cpu time spent up to now is        1.1 secs

     Computing kpt #:    43  of    81
     total cpu time spent up to now is        1.2 secs

     Computing kpt #:    44  of    81
     total cpu time spent up to now is        1.2 secs

     Computing kpt #:    45  of    81
     total cpu time spent up to now is        1.2 secs

     Computing kpt #:    46  of    81
     total cpu time spent up to now is        1.2 secs

     Computing kpt #:    47  of    81
     total cpu time spent up to now is        1.2 secs

     Computing kpt #:    48  of    81
     total cpu time spent up to now is        1.2 secs

     Computing kpt #:    49  of    81
     total cpu time spent up to now is        1.2 secs

     Computing kpt #:    50  of    81
     total cpu time spent up to now is        1.2 secs

     Computing kpt #:    51  of    81
     total cpu time spent up to now is        1.3 secs

     Computing kpt #:    52  of    81
     total cpu time spent up to now is        1.3 secs

     Computing kpt #:    53  of    81
     total cpu time spent up to now is        1.3 secs

     Computing kpt #:    54  of    81
     total cpu time spent up to now is        1.3 secs

     Computing kpt #:    55  of    81
     total cpu time spent up to now is        1.3 secs

     Computing kpt #:    56  of    81
     total cpu time spent up to now is        1.3 secs

     Computing kpt #:    57  of    81
     total cpu time spent up to now is        1.3 secs

     Computing kpt #:    58  of    81
     total cpu time spent up to now is        1.3 secs

     Computing kpt #:    59  of    81
     total cpu time spent up to now is        1.4 secs

     Computing kpt #:    60  of    81
     total cpu time spent up to now is        1.4 secs

     Computing kpt #:    61  of    81
     total cpu time spent up to now is        1.4 secs

     Computing kpt #:    62  of    81
     total cpu time spent up to now is        1.4 secs

     Computing kpt #:    63  of    81
     total cpu time spent up to now is        1.4 secs

     Computing kpt #:    64  of    81
     total cpu time spent up to now is        1.4 secs

     Computing kpt #:    65  of    81
     total cpu time spent up to now is        1.4 secs

     Computing kpt #:    66  of    81
     total cpu time spent up to now is        1.4 secs

     Computing kpt #:    67  of    81
     total cpu time spent up to now is        1.4 secs

     Computing kpt #:    68  of    81
     total cpu time spent up to now is        1.5 secs

     Computing kpt #:    69  of    81
     total cpu time spent up to now is        1.5 secs

     Computing kpt #:    70  of    81
     total cpu time spent up to now is        1.5 secs

     Computing kpt #:    71  of    81
     total cpu time spent up to now is        1.5 secs

     Computing kpt #:    72  of    81
     total cpu time spent up to now is        1.5 secs

     Computing kpt #:    73  of    81
     total cpu time spent up to now is        1.5 secs

     Computing kpt #:    74  of    81
     total cpu time spent up to now is        1.5 secs

     Computing kpt #:    75  of    81
     total cpu time spent up to now is        1.5 secs

     Computing kpt #:    76  of    81
     total cpu time spent up to now is        1.5 secs

     Computing kpt #:    77  of    81
     total cpu time spent up to now is        1.6 secs

     Computing kpt #:    78  of    81
     total cpu time spent up to now is        1.6 secs

     Computing kpt #:    79  of    81
     total cpu time spent up to now is        1.6 secs

     Computing kpt #:    80  of    81
     total cpu time spent up to now is        1.6 secs

     Computing kpt #:    81  of    81
     total cpu time spent up to now is        1.6 secs

     ethr =  4.56E-07,  avg # of iterations = 10.1

     total cpu time spent up to now is        1.6 secs

     End of band structure calculation

          k = 0.0000 0.0000 0.0000 (   767 PWs)   bands (ev):

   -69.0207 -34.8263 -34.8263 -34.8263   9.6911  16.5464  16.5464  16.5464
    18.1010  18.1010  42.4569  42.4569  42.4569

          k = 0.0000 0.0500 0.0000 (   775 PWs)   bands (ev):

   -69.0198 -34.8303 -34.8283 -34.8283   9.7430  16.5448  16.5448  16.5610
    18.0750  18.1109  42.1283  42.4316  42.4316

          k = 0.0000 0.1000 0.0000 (   775 PWs)   bands (ev):

   -69.0170 -34.8405 -34.8334 -34.8334   9.8980  16.5419  16.5419  16.6046
    17.9984  18.1405  41.3600  42.3238  42.3238

          k = 0.0000 0.1500 0.0000 (   771 PWs)   bands (ev):

   -69.0123 -34.8564 -34.8419 -34.8419  10.1526  16.5402  16.5402  16.6762
    17.8726  18.1885  40.4460  42.0461  42.0461

          k = 0.0000 0.2000 0.0000 (   771 PWs)   bands (ev):

   -69.0060 -34.8784 -34.8533 -34.8533  10.5012  16.5439  16.5439  16.7745
    17.7007  18.2508  39.5309  41.5106  41.5106

          k = 0.0000 0.2500 0.0000 (   771 PWs)   bands (ev):

   -68.9983 -34.9041 -34.8678 -34.8678  10.9351  16.5575  16.5575  16.8972
    17.4866  18.3280  38.6725  40.7144  40.7144

          k = 0.0000 0.3000 0.0000 (   763 PWs)   bands (ev):

   -68.9893 -34.9320 -34.8846 -34.8846  11.4419  16.5872  16.5872  17.0422
    17.2360  18.4196  37.8937  39.7341  39.7341

          k = 0.0000 0.3500 0.0000 (   763 PWs)   bands (ev):

   -68.9795 -34.9612 -34.9040 -34.9040  12.0031  16.6379  16.6379  16.9552
    17.2053  18.5307  37.2020  38.6516  38.6516

          k = 0.0000 0.4000 0.0000 (   779 PWs)   bands (ev):

   -68.9692 -34.9908 -34.9257 -34.9257  12.5919  16.6518  16.7144  16.7144
    17.3828  18.6749  36.5976  37.5228  37.5228

          k = 0.0000 0.4500 0.0000 (   775 PWs)   bands (ev):

   -68.9584 -35.0180 -34.9481 -34.9481  13.1709  16.3342  16.8220  16.8220
    17.5718  18.8796  36.0768  36.3835  36.3835

          k = 0.0000 0.5000 0.0000 (   771 PWs)   bands (ev):

   -68.9476 -35.0425 -34.9714 -34.9714  13.6904  16.0109  16.9627  16.9627
    17.7671  19.1866  35.2552  35.2552  35.6336

          k = 0.0000 0.5500 0.0000 (   771 PWs)   bands (ev):

   -68.9371 -35.0642 -34.9949 -34.9949  14.0984  15.6902  17.1375  17.1375
    17.9640  19.6439  34.1541  34.1541  35.2609

          k = 0.0000 0.6000 0.0000 (   779 PWs)   bands (ev):

   -68.9272 -35.0824 -35.0183 -35.0183  14.3606  15.3801  17.3455  17.3455
    18.1574  20.2859  33.0931  33.0931  34.9509

          k = 0.0000 0.6500 0.0000 (   775 PWs)   bands (ev):

   -68.9178 -35.0963 -35.0404 -35.0404  14.4784  15.0887  17.5841  17.5841
    18.3427  21.1156  32.0853  32.0853  34.6968

          k = 0.0000 0.7000 0.0000 (   783 PWs)   bands (ev):

   -68.9095 -35.1070 -35.0615 -35.0615  14.4819  14.8221  17.8464  17.8464
    18.5145  22.1055  31.1440  31.1440  34.4910

          k = 0.0000 0.7500 0.0000 (   783 PWs)   bands (ev):

   -68.9022 -35.1146 -35.0800 -35.0800  14.4123  14.5869  18.1226  18.1226
    18.6691  23.2168  30.2849  30.2849  34.3280

          k = 0.0000 0.8000 0.0000 (   791 PWs)   bands (ev):

   -68.8961 -35.1203 -35.0960 -35.0960  14.3069  14.3878  18.3976  18.3976
    18.8018  24.4040  29.5271  29.5271  34.2020

          k = 0.0000 0.8500 0.0000 (   784 PWs)   bands (ev):

   -68.8911 -35.1232 -35.1085 -35.1085  14.1964  14.2290  18.6528  18.6528
    18.9092  25.6108  28.8937  28.8937  34.1089

          k = 0.0000 0.9000 0.0000 (   776 PWs)   bands (ev):

   -68.8875 -35.1243 -35.1178 -35.1178  14.1029  14.1133  18.8635  18.8635
    18.9881  26.7474  28.4114  28.4114  34.0448

          k = 0.0000 0.9500 0.0000 (   784 PWs)   bands (ev):

   -68.8855 -35.1255 -35.1238 -35.1238  14.0408  14.0429  19.0031  19.0031
    19.0362  27.6415  28.1073  28.1073  34.0072

          k = 0.0000 1.0000 0.0000 (   784 PWs)   bands (ev):

   -68.8848 -35.1257 -35.1257 -35.1257  14.0193  14.0193  19.0525  19.0525
    19.0525  28.0032  28.0032  28.0032  33.9948

          k = 0.0250 0.9750 0.0000 (   784 PWs)   bands (ev):

   -68.8851 -35.1265 -35.1248 -35.1239  14.0304  14.0308  19.0178  19.0275
    19.0542  27.9138  27.9553  28.0554  34.0358

          k = 0.0500 0.9500 0.0000 (   778 PWs)   bands (ev):

   -68.8861 -35.1285 -35.1218 -35.1181  14.0641  14.0650  18.9168  18.9540
    19.0592  27.6629  27.8214  28.2093  34.1471

          k = 0.0750 0.9250 0.0000 (   776 PWs)   bands (ev):

   -68.8878 -35.1317 -35.1169 -35.1095  14.1198  14.1200  18.7572  18.8343
    19.0677  27.2893  27.6261  28.4575  34.3022

          k = 0.1000 0.9000 0.0000 (   780 PWs)   bands (ev):

   -68.8902 -35.1367 -35.1104 -35.0978  14.1924  14.1978  18.5491  18.6754
    19.0792  26.8331  27.3980  28.7896  34.4729

          k = 0.1250 0.8750 0.0000 (   790 PWs)   bands (ev):

   -68.8933 -35.1431 -35.1027 -35.0830  14.2778  14.2980  18.3046  18.4854
    19.0929  26.3251  27.1616  29.1942  34.6396

          k = 0.1500 0.8500 0.0000 (   790 PWs)   bands (ev):

   -68.8968 -35.1502 -35.0933 -35.0654  14.3700  14.4209  18.0360  18.2761
    19.1094  25.7865  26.9348  29.6605  34.7934

          k = 0.1750 0.8250 0.0000 (   782 PWs)   bands (ev):

   -68.9005 -35.1579 -35.0826 -35.0449  14.4599  14.5664  17.7536  18.0625
    19.1281  25.2309  26.7285  30.1788  34.9329

          k = 0.2000 0.8000 0.0000 (   778 PWs)   bands (ev):

   -68.9047 -35.1663 -35.0708 -35.0233  14.5361  14.7343  17.4658  17.8613
    19.1483  24.6669  26.5476  30.7409  35.0600

          k = 0.2250 0.7750 0.0000 (   782 PWs)   bands (ev):

   -68.9091 -35.1754 -35.0590 -35.0006  14.5851  14.9244  17.1803  17.6917
    19.1693  24.1007  26.3936  31.3402  35.1782

          k = 0.2500 0.7500 0.0000 (   782 PWs)   bands (ev):

   -68.9136 -35.1846 -35.0465 -34.9773  14.5948  15.1369  16.9035  17.5712
    19.1912  23.5365  26.2657  31.9711  35.2913

          k = 0.2750 0.7250 0.0000 (   778 PWs)   bands (ev):

   -68.9181 -35.1937 -35.0338 -34.9538  14.5581  15.3717  16.6407  17.5104
    19.2132  22.9774  26.1620  32.6293  35.4020

          k = 0.3000 0.7000 0.0000 (   786 PWs)   bands (ev):

   -68.9226 -35.2027 -35.0217 -34.9314  14.4767  15.6284  16.3953  17.5093
    19.2346  22.4255  26.0790  33.3105  35.5116

          k = 0.3250 0.6750 0.0000 (   782 PWs)   bands (ev):

   -68.9267 -35.2109 -35.0101 -34.9095  14.3617  15.9075  16.1719  17.5585
    19.2552  21.8832  26.0143  34.0111  35.6213

          k = 0.3500 0.6500 0.0000 (   784 PWs)   bands (ev):

   -68.9306 -35.2188 -34.9994 -34.8895  14.2282  15.9728  16.2080  17.6418
    19.2742  21.3519  25.9646  34.7268  35.7301

          k = 0.3750 0.6250 0.0000 (   792 PWs)   bands (ev):

   -68.9341 -35.2262 -34.9903 -34.8714  14.0914  15.8007  16.5297  17.7419
    19.2909  20.8330  25.9275  35.4521  35.8356

          k = 0.4000 0.6000 0.0000 (   792 PWs)   bands (ev):

   -68.9370 -35.2321 -34.9821 -34.8559  13.9648  15.6574  16.8722  17.8444
    19.3054  20.3281  25.9006  35.9344  36.1782

          k = 0.4250 0.5750 0.0000 (   788 PWs)   bands (ev):

   -68.9394 -35.2366 -34.9755 -34.8434  13.8577  15.5445  17.2349  17.9366
    19.3172  19.8387  25.8820  36.0213  36.8885

          k = 0.4500 0.5500 0.0000 (   790 PWs)   bands (ev):

   -68.9411 -35.2401 -34.9707 -34.8345  13.7767  15.4630  17.6157  18.0089
    19.3257  19.3669  25.8698  36.0898  37.5467

          k = 0.4750 0.5250 0.0000 (   786 PWs)   bands (ev):

   -68.9421 -35.2422 -34.9676 -34.8287  13.7265  15.4141  18.0090  18.0551
    18.9190  19.3310  25.8632  36.1341  38.0677

          k = 0.5000 0.5000 0.0000 (   798 PWs)   bands (ev):

   -68.9426 -35.2431 -34.9669 -34.8276  13.7094  15.3969  18.0708  18.3130
    18.5962  19.3326  25.8607  36.1493  38.2823

          k = 0.4750 0.4750 0.0000 (   794 PWs)   bands (ev):

   -68.9430 -35.2402 -34.9661 -34.8276  13.7048  15.4035  18.0586  18.3109
    18.5119  19.3114  26.0034  36.1809  38.3287

          k = 0.4500 0.4500 0.0000 (   794 PWs)   bands (ev):

   -68.9445 -35.2329 -34.9635 -34.8274  13.6877  15.4231  18.0020  18.3038
    18.3048  19.2489  26.4082  36.2752  38.4668

          k = 0.4250 0.4250 0.0000 (   782 PWs)   bands (ev):

   -68.9467 -35.2206 -34.9587 -34.8269  13.6515  15.4557  17.7918  18.1407
    18.2949  19.1479  27.0236  36.4312  38.6940

          k = 0.4000 0.4000 0.0000 (   782 PWs)   bands (ev):

   -68.9499 -35.2038 -34.9530 -34.8269  13.5838  15.4997  17.4384  18.0763
    18.2816  19.0124  27.7942  36.6473  39.0055

          k = 0.3750 0.3750 0.0000 (   790 PWs)   bands (ev):

   -68.9541 -35.1833 -34.9461 -34.8273  13.4688  15.5544  17.0785  18.0319
    18.2654  18.8476  28.6775  36.9211  39.3958

          k = 0.3500 0.3500 0.0000 (   786 PWs)   bands (ev):

   -68.9587 -35.1587 -34.9376 -34.8272  13.2908  15.6194  16.7736  17.9907
    18.2479  18.6604  29.6429  37.2495  39.8588

          k = 0.3250 0.3250 0.0000 (   786 PWs)   bands (ev):

   -68.9640 -35.1312 -34.9283 -34.8272  13.0425  15.6930  16.5514  17.9506
    18.2293  18.4562  30.6686  37.6287  40.3875

          k = 0.3000 0.3000 0.0000 (   788 PWs)   bands (ev):

   -68.9697 -35.1014 -34.9182 -34.8272  12.7307  15.7736  16.4159  17.9133
    18.2105  18.2417  31.7386  38.0542  40.9752

          k = 0.2750 0.2750 0.0000 (   788 PWs)   bands (ev):

   -68.9757 -35.0699 -34.9076 -34.8272  12.3739  15.8595  16.3540  17.8815
    18.0228  18.1922  32.8398  38.5200  41.6153

          k = 0.2500 0.2500 0.0000 (   784 PWs)   bands (ev):

   -68.9817 -35.0372 -34.8966 -34.8272  11.9948  15.9486  16.3447  17.8055
    17.8582  18.1751  33.9607  39.0189  41.8499

          k = 0.2250 0.2250 0.0000 (   782 PWs)   bands (ev):

   -68.9879 -35.0046 -34.8857 -34.8268  11.6137  16.0388  16.3674  17.5941
    17.8468  18.1597  35.0901  39.5414  41.9181

          k = 0.2000 0.2000 0.0000 (   778 PWs)   bands (ev):

   -68.9938 -34.9724 -34.8751 -34.8268  11.2464  16.1279  16.4056  17.3938
    17.8494  18.1460  36.2162  40.0749  41.9915

          k = 0.1750 0.1750 0.0000 (   772 PWs)   bands (ev):

   -68.9994 -34.9418 -34.8647 -34.8265  10.9042  16.2137  16.4461  17.2084
    17.8674  18.1344  37.3248  40.6023  42.0687

          k = 0.1500 0.1500 0.0000 (   772 PWs)   bands (ev):

   -69.0046 -34.9136 -34.8554 -34.8266  10.5956  16.2936  16.4815  17.0411
    17.8992  18.1246  38.3993  41.1013  42.1477

          k = 0.1250 0.1250 0.0000 (   778 PWs)   bands (ev):

   -69.0093 -34.8887 -34.8472 -34.8268  10.3265  16.3657  16.5084  16.8944
    17.9409  18.1164  39.4195  41.5448  42.2257

          k = 0.1000 0.1000 0.0000 (   774 PWs)   bands (ev):

   -69.0133 -34.8667 -34.8401 -34.8267  10.1015  16.4280  16.5267  16.7715
    17.9874  18.1105  40.3596  41.9064  42.2989

          k = 0.0750 0.0750 0.0000 (   779 PWs)   bands (ev):

   -69.0166 -34.8499 -34.8344 -34.8268   9.9235  16.4784  16.5371  16.6738
    18.0319  18.1060  41.1855  42.1703  42.3630

          k = 0.0500 0.0500 0.0000 (   777 PWs)   bands (ev):

   -69.0189 -34.8371 -34.8302 -34.8266   9.7948  16.5156  16.5430  16.6032
    18.0685  18.1031  41.8520  42.3391  42.4134

          k = 0.0250 0.0250 0.0000 (   777 PWs)   bands (ev):

   -69.0203 -34.8294 -34.8276 -34.8266   9.7171  16.5384  16.5455  16.5604
    18.0925  18.1013  42.2978  42.4291  42.4457

          k = 0.0000 0.0000 0.0000 (   767 PWs)   bands (ev):

   -69.0207 -34.8263 -34.8263 -34.8263   9.6911  16.5464  16.5464  16.5464
    18.1010  18.1010  42.4569  42.4569  42.4569

          k = 0.0250 0.0250 0.0250 (   773 PWs)   bands (ev):

   -69.0200 -34.8311 -34.8269 -34.8269   9.7301  16.5382  16.5382  16.5713
    18.0951  18.0951  42.2907  42.2907  42.4916

          k = 0.0500 0.0500 0.0500 (   773 PWs)   bands (ev):

   -69.0179 -34.8439 -34.8282 -34.8282   9.8464  16.5133  16.5133  16.6461
    18.0794  18.0794  41.8139  41.8139  42.5959

          k = 0.0750 0.0750 0.0750 (   773 PWs)   bands (ev):

   -69.0144 -34.8638 -34.8307 -34.8307  10.0382  16.4701  16.4701  16.7705
    18.0578  18.0578  41.0896  41.0896  42.7696

          k = 0.1000 0.1000 0.1000 (   776 PWs)   bands (ev):

   -69.0098 -34.8913 -34.8339 -34.8339  10.3020  16.4072  16.4072  16.9418
    18.0362  18.0362  40.2018  40.2018  43.0128

          k = 0.1250 0.1250 0.1250 (   776 PWs)   bands (ev):

   -69.0042 -34.9237 -34.8380 -34.8380  10.6333  16.3240  16.3240  17.1599
    18.0203  18.0203  39.2237  39.2237  43.3255

          k = 0.1500 0.1500 0.1500 (   773 PWs)   bands (ev):

   -68.9977 -34.9595 -34.8431 -34.8431  11.0260  16.2222  16.2222  17.4229
    18.0141  18.0141  38.2060  38.2060  42.0661

          k = 0.1750 0.1750 0.1750 (   772 PWs)   bands (ev):

   -68.9907 -34.9967 -34.8496 -34.8496  11.4720  16.1054  16.1054  17.7293
    18.0194  18.0194  37.1809  37.1809  40.6154

          k = 0.2000 0.2000 0.2000 (   790 PWs)   bands (ev):

   -68.9836 -35.0344 -34.8579 -34.8579  11.9616  15.9790  15.9790  18.0355
    18.0355  18.0773  36.1676  36.1676  39.2017

          k = 0.2250 0.2250 0.2250 (   784 PWs)   bands (ev):

   -68.9763 -35.0688 -34.8666 -34.8666  12.4826  15.8507  15.8507  18.0616
    18.0616  18.4684  35.1787  35.1787  37.8378

          k = 0.2500 0.2500 0.2500 (   784 PWs)   bands (ev):

   -68.9692 -35.0993 -34.8769 -34.8769  13.0198  15.7261  15.7261  18.0945
    18.0945  18.9040  34.2214  34.2214  36.5349

          k = 0.2750 0.2750 0.2750 (   784 PWs)   bands (ev):

   -68.9625 -35.1243 -34.8884 -34.8884  13.5545  15.6114  15.6114  18.1317
    18.1317  19.3891  33.3005  33.3005  35.3047

          k = 0.3000 0.3000 0.3000 (   784 PWs)   bands (ev):

   -68.9565 -35.1422 -34.9014 -34.9014  14.0650  15.5112  15.5112  18.1706
    18.1706  19.9315  32.4188  32.4188  34.1586

          k = 0.3250 0.3250 0.3250 (   790 PWs)   bands (ev):

   -68.9513 -35.1528 -34.9156 -34.9156  14.5279  15.4296  15.4296  18.2083
    18.2083  20.5407  31.5787  31.5787  33.1069

          k = 0.3500 0.3500 0.3500 (   790 PWs)   bands (ev):

   -68.9469 -35.1554 -34.9306 -34.9306  14.9205  15.3689  15.3689  18.2440
    18.2440  21.2279  30.7812  30.7812  32.1593

          k = 0.3750 0.3750 0.3750 (   781 PWs)   bands (ev):

   -68.9433 -35.1498 -34.9462 -34.9462  15.2254  15.3305  15.3305  18.2760
    18.2760  22.0015  30.0276  30.0276  31.3232

          k = 0.4000 0.4000 0.4000 (   781 PWs)   bands (ev):

   -68.9407 -35.1368 -34.9627 -34.9627  15.3138  15.3138  15.4332  18.3031
    18.3031  22.8641  29.3188  29.3188  30.6033

          k = 0.4250 0.4250 0.4250 (   778 PWs)   bands (ev):

   -68.9389 -35.1170 -34.9795 -34.9795  15.3183  15.3183  15.5447  18.3246
    18.3246  23.8132  28.6560  28.6560  30.0026

          k = 0.4500 0.4500 0.4500 (   778 PWs)   bands (ev):

   -68.9378 -35.0916 -34.9967 -34.9967  15.3416  15.3416  15.5698  18.3402
    18.3402  24.8382  28.0408  28.0408  29.5227

          k = 0.4750 0.4750 0.4750 (   784 PWs)   bands (ev):

   -68.9374 -35.0625 -35.0138 -35.0138  15.3807  15.3807  15.5248  18.3494
    18.3494  25.9144  27.4754  27.4754  29.1746

          k = 0.5000 0.5000 0.5000 (   784 PWs)   bands (ev):

   -68.9372 -35.0305 -35.0305 -35.0305  15.4316  15.4316  15.4316  18.3526
    18.3526  26.9632  26.9632  26.9632  29.0184

     Writing all to output data dir ./work/pwscf.save/

     init_run     :      0.29s CPU      0.33s WALL (       1 calls)
     electrons    :      0.60s CPU      0.94s WALL (       1 calls)

     Called by init_run:
     wfcinit      :      0.00s CPU      0.00s WALL (       1 calls)
     wfcinit:atom :      0.00s CPU      0.00s WALL (      81 calls)
     wfcinit:wfcr :      0.07s CPU      0.08s WALL (      81 calls)
     potinit      :      0.07s CPU      0.10s WALL (       1 calls)
     hinit0       :      0.21s CPU      0.21s WALL (       1 calls)

     Called by electrons:
     c_bands      :      0.60s CPU      0.94s WALL (       1 calls)
     v_of_rho     :      0.00s CPU      0.00s WALL (       1 calls)
     v_h          :      0.00s CPU      0.00s WALL (       1 calls)
     v_xc         :      0.00s CPU      0.00s WALL (       1 calls)
     newd         :      0.00s CPU      0.00s WALL (       1 calls)
     PAW_pot      :      0.03s CPU      0.03s WALL (       1 calls)

     Called by c_bands:
     init_us_2    :      0.00s CPU      0.00s WALL (      81 calls)
     init_us_2:cp :      0.00s CPU      0.00s WALL (      81 calls)
     cegterg      :      0.49s CPU      0.56s WALL (      81 calls)

     Called by sum_band:

     Called by *egterg:
     cdiaghg      :      0.11s CPU      0.12s WALL (     901 calls)
     cegterg:over :      0.03s CPU      0.04s WALL (     820 calls)
     cegterg:upda :      0.01s CPU      0.01s WALL (     820 calls)
     cegterg:last :      0.01s CPU      0.01s WALL (     476 calls)
     h_psi        :      0.35s CPU      0.41s WALL (     982 calls)
     s_psi        :      0.01s CPU      0.01s WALL (     982 calls)
     g_psi        :      0.00s CPU      0.00s WALL (     820 calls)

     Called by h_psi:
     h_psi:calbec :      0.02s CPU      0.02s WALL (     982 calls)
     vloc_psi     :      0.33s CPU      0.38s WALL (     982 calls)
     add_vuspsi   :      0.01s CPU      0.01s WALL (     982 calls)

     General routines
     calbec       :      0.02s CPU      0.02s WALL (     982 calls)
     fft          :      0.17s CPU      0.17s WALL (      13 calls)
     ffts         :      0.03s CPU      0.03s WALL (       1 calls)
     fftw         :      0.30s CPU      0.35s WALL (   14690 calls)
     interpolate  :      0.03s CPU      0.03s WALL (       1 calls)

     Parallel routines

     PAW routines
     PAW_pot      :      0.03s CPU      0.03s WALL (       1 calls)

     PWSCF        :      1.13s CPU      2.23s WALL


   This run was terminated on:  16: 6:59  22Sep2023            

=------------------------------------------------------------------------------=
   JOB DONE.
=------------------------------------------------------------------------------=
