
     Program PWSCF v.7.1 starts on 20Sep2023 at 14:48:35 

     This program is part of the open-source Quantum ESPRESSO suite
     for quantum simulation of materials; please cite
         "P. Giannozzi et al., J. Phys.:Condens. Matter 21 395502 (2009);
         "P. Giannozzi et al., J. Phys.:Condens. Matter 29 465901 (2017);
         "P. Giannozzi et al., J. Chem. Phys. 152 154105 (2020);
          URL http://www.quantum-espresso.org", 
     in publications or presentations arising from this work. More details at
     http://www.quantum-espresso.org/quote

     Parallel version (MPI & OpenMP), running on      10 processor cores
     Number of MPI processes:                10
     Threads/MPI process:                     1

     MPI processes distributed on     1 nodes
     13038 MiB available memory on the printing compute node when the environment starts

     Waiting for input...
     Reading input from standard input

     Current dimensions of program PWSCF are:
     Max number of different atomic species (ntypx) = 10
     Max number of k-points (npk) =  40000
     Max angular momentum in pseudopotentials (lmaxx) =  4
     file Fe.pbe-spn-kjpaw_psl.0.2.1.UPF: wavefunction(s)  3D renormalized
     file S.pbe-n-kjpaw_psl.0.1.UPF: wavefunction(s)  3P renormalized
     Message from routine setup:
     using ibrav=0 with symmetry is DISCOURAGED, use correct ibrav instead

     R & G space division:  proc/nbgrp/npool/nimage =      10
     Subspace diagonalization in iterative solution of the eigenvalue problem:
     a serial algorithm will be used


     Parallelization info
     --------------------
     sticks:   dense  smooth     PW     G-vecs:    dense   smooth      PW
     Min         648     210     57                39186     7322    1037
     Max         649     212     58                39189     7323    1040
     Sum        6485    2109    577               391871    73223   10395

     Using Slab Decomposition



     bravais-lattice index     =            0
     lattice parameter (alat)  =      10.1985  a.u.
     unit-cell volume          =    1060.7436 (a.u.)^3
     number of atoms/cell      =           12
     number of atomic types    =            2
     number of electrons       =       112.00
     number of Kohn-Sham states=           67
     kinetic-energy cutoff     =      64.0000  Ry
     charge density cutoff     =     782.0000  Ry
     scf convergence threshold =      1.0E-04
     mixing beta               =       0.1000
     number of iterations used =            8  plain     mixing
     Exchange-correlation= SLA  PW   PBX  PBC
                           (   1   4   3   4   0   0   0)

     celldm(1)=  10.198512  celldm(2)=   0.000000  celldm(3)=   0.000000
     celldm(4)=   0.000000  celldm(5)=   0.000000  celldm(6)=   0.000000

     crystal axes: (cart. coord. in units of alat)
               a(1) = (   1.000000   0.000000   0.000000 )  
               a(2) = (   0.000000   1.000000   0.000000 )  
               a(3) = (   0.000000   0.000000   1.000000 )  

     reciprocal axes: (cart. coord. in units 2 pi/alat)
               b(1) = (  1.000000  0.000000  0.000000 )  
               b(2) = (  0.000000  1.000000  0.000000 )  
               b(3) = (  0.000000  0.000000  1.000000 )  


     PseudoPot. # 1 for Fe read from file:
     ./../../pseudo/psl031_PBE/Fe.pbe-spn-kjpaw_psl.0.2.1.UPF
     MD5 check sum: 7e4be4449e4de31c8b6269baf83c12b4
     Pseudo is Projector augmented-wave + core cor, Zval = 16.0
     Generated using 'atomic' code by A. Dal Corso  v.7.2
     Shape of augmentation charge: PSQ
     Using radial grid of 1191 points,  6 beta functions with: 
                l(1) =   0
                l(2) =   0
                l(3) =   1
                l(4) =   1
                l(5) =   2
                l(6) =   2
     Q(r) pseudized with 0 coefficients 


     PseudoPot. # 2 for S  read from file:
     ./../../pseudo/psl031_PBE/S.pbe-n-kjpaw_psl.0.1.UPF
     MD5 check sum: f5498c628d6abfb9e86f5ff98a19f17e
     Pseudo is Projector augmented-wave + core cor, Zval =  6.0
     Generated using 'atomic' code by A. Dal Corso  v.7.2
     Shape of augmentation charge: PSQ
     Using radial grid of 1151 points,  4 beta functions with: 
                l(1) =   0
                l(2) =   0
                l(3) =   1
                l(4) =   1
     Q(r) pseudized with 0 coefficients 


     atomic species   valence    mass     pseudopotential
        Fe            16.00    55.84500     Fe( 1.00)
        S              6.00    32.06750     S ( 1.00)

     24 Sym. Ops., with inversion, found (18 have fractional translation)



   Cartesian axes

     site n.     atom                  positions (alat units)
         1           Fe  tau(   1) = (   0.0000000   0.5000000   0.5000000  )
         2           Fe  tau(   2) = (   0.5000000   0.5000000   0.0000000  )
         3           Fe  tau(   3) = (   0.5000000   0.0000000   0.5000000  )
         4           Fe  tau(   4) = (   0.0000000   0.0000000   0.0000000  )
         5           S   tau(   5) = (   0.3853801   0.1146199   0.8853801  )
         6           S   tau(   6) = (   0.1146199   0.8853801   0.3853801  )
         7           S   tau(   7) = (   0.8853801   0.3853801   0.1146199  )
         8           S   tau(   8) = (   0.6146199   0.6146199   0.6146199  )
         9           S   tau(   9) = (   0.3853801   0.3853801   0.3853801  )
        10           S   tau(  10) = (   0.1146199   0.6146199   0.8853801  )
        11           S   tau(  11) = (   0.8853801   0.1146199   0.6146199  )
        12           S   tau(  12) = (   0.6146199   0.8853801   0.1146199  )

     number of k points=     4  Methfessel-Paxton smearing, width (Ry)=  0.0100
                       cart. coord. in units 2pi/alat
        k(    1) = (   0.0000000   0.0000000   0.0000000), wk =   0.0740741
        k(    2) = (   0.0000000   0.0000000   0.3333333), wk =   0.4444444
        k(    3) = (   0.0000000   0.3333333   0.3333333), wk =   0.8888889
        k(    4) = (   0.3333333   0.3333333   0.3333333), wk =   0.5925926

     Dense  grid:   391871 G-vectors     FFT dimensions: (  96,  96,  96)

     Smooth grid:    73223 G-vectors     FFT dimensions: (  54,  54,  54)

     Estimated max dynamical RAM per process >     159.36 MB

     Estimated total dynamical RAM >       1.56 GB

     Check: negative core charge=   -0.000009

     Initial potential from superposition of free atoms

     starting charge     111.9980, renormalised to     112.0000
     Starting wfcs are   84 randomized atomic wfcs
     Checking if some PAW data can be deallocated... 

     total cpu time spent up to now is        1.6 secs

     per-process dynamical memory:    38.9 Mb

     Self-consistent Calculation

     iteration #  1     ecut=    64.00 Ry     beta= 0.10
     Davidson diagonalization with overlap
     ethr =  1.00E-02,  avg # of iterations =  2.5

     total cpu time spent up to now is        2.7 secs

     total energy              =   -1847.60688015 Ry
     estimated scf accuracy    <       2.58388728 Ry

     iteration #  2     ecut=    64.00 Ry     beta= 0.10
     Davidson diagonalization with overlap
     ethr =  2.31E-03,  avg # of iterations =  2.0

     total cpu time spent up to now is        3.7 secs

     total energy              =   -1847.85369724 Ry
     estimated scf accuracy    <       0.32759741 Ry

     iteration #  3     ecut=    64.00 Ry     beta= 0.10
     Davidson diagonalization with overlap
     ethr =  2.92E-04,  avg # of iterations =  4.0

     total cpu time spent up to now is        4.8 secs

     total energy              =   -1847.82312513 Ry
     estimated scf accuracy    <       0.23727614 Ry

     iteration #  4     ecut=    64.00 Ry     beta= 0.10
     Davidson diagonalization with overlap
     ethr =  2.12E-04,  avg # of iterations =  2.8

     total cpu time spent up to now is        5.9 secs

     total energy              =   -1847.82864678 Ry
     estimated scf accuracy    <       0.44752563 Ry

     iteration #  5     ecut=    64.00 Ry     beta= 0.10
     Davidson diagonalization with overlap
     ethr =  2.12E-04,  avg # of iterations =  2.0

     total cpu time spent up to now is        6.9 secs

     total energy              =   -1847.85970296 Ry
     estimated scf accuracy    <       0.02325639 Ry

     iteration #  6     ecut=    64.00 Ry     beta= 0.10
     Davidson diagonalization with overlap
     ethr =  2.08E-05,  avg # of iterations =  5.8

     total cpu time spent up to now is        8.1 secs

     total energy              =   -1847.85838393 Ry
     estimated scf accuracy    <       0.01767592 Ry

     iteration #  7     ecut=    64.00 Ry     beta= 0.10
     Davidson diagonalization with overlap
     ethr =  1.58E-05,  avg # of iterations =  1.2

     total cpu time spent up to now is        9.0 secs

     total energy              =   -1847.86027750 Ry
     estimated scf accuracy    <       0.00123505 Ry

     iteration #  8     ecut=    64.00 Ry     beta= 0.10
     Davidson diagonalization with overlap
     ethr =  1.10E-06,  avg # of iterations =  4.5

     total cpu time spent up to now is       10.3 secs

     total energy              =   -1847.86173526 Ry
     estimated scf accuracy    <       0.00044091 Ry

     iteration #  9     ecut=    64.00 Ry     beta= 0.10
     Davidson diagonalization with overlap
     ethr =  3.94E-07,  avg # of iterations =  2.0

     total cpu time spent up to now is       11.4 secs

     total energy              =   -1847.86218951 Ry
     estimated scf accuracy    <       0.00111014 Ry

     iteration # 10     ecut=    64.00 Ry     beta= 0.10
     Davidson diagonalization with overlap
     ethr =  3.94E-07,  avg # of iterations =  2.2

     total cpu time spent up to now is       12.4 secs

     End of self-consistent calculation

          k = 0.0000 0.0000 0.0000 (  9093 PWs)   bands (ev):

   -73.3950 -73.3947 -73.3947 -73.3947 -39.5749 -39.5749 -39.5749 -39.5729
   -39.5729 -39.5720 -39.5720 -39.5720 -39.3199 -39.3193 -39.3193 -39.3193
    -4.1518  -2.0214  -2.0214  -2.0214   0.5173   0.5173   0.5173   1.9832
     6.1983   6.1983   6.1983   6.9467   6.9467   6.9467   7.8019   7.8019
     7.9240   7.9240   7.9240   7.9806   9.0499   9.0499   9.0499   9.4165
     9.4165  10.2681  10.2681  10.2681  11.7886  11.7886  11.7886  12.3674
    12.3674  12.5077  12.5077  12.5077  12.5202  12.5202  12.5202  12.7851
    13.4863  14.4151  14.4151  14.4151  16.0742  16.0742  16.2005  16.2005
    16.2005  16.8067  16.8070

          k = 0.0000 0.0000 0.3333 (  9142 PWs)   bands (ev):

   -73.3949 -73.3948 -73.3948 -73.3948 -39.5748 -39.5745 -39.5745 -39.5735
   -39.5728 -39.5726 -39.5726 -39.5723 -39.3199 -39.3195 -39.3195 -39.3194
    -3.7464  -2.7332  -1.9435  -1.9398   0.6363   0.6966   0.7235   1.4125
     5.7466   5.8112   5.8394   6.3866   6.6786   6.9347   7.8019   8.0771
     8.1167   8.2439   8.3943   8.9888   9.0963   9.1513   9.5758   9.6161
     9.8413  10.0079  10.1476  10.7893  11.8709  12.0658  12.1441  12.2467
    12.3232  12.3620  12.4226  12.4544  12.5213  12.6674  12.7687  12.8071
    14.2533  14.2560  14.5110  14.7341  15.1285  15.5054  15.5750  15.8117
    15.9775  16.0542  16.4503

          k = 0.0000 0.3333 0.3333 (  9198 PWs)   bands (ev):

   -73.3949 -73.3948 -73.3948 -73.3948 -39.5749 -39.5747 -39.5741 -39.5739
   -39.5733 -39.5730 -39.5725 -39.5724 -39.3199 -39.3197 -39.3197 -39.3196
    -3.3692  -2.4802  -2.4773  -2.0558   0.5855   0.6546   0.8221   1.0426
     5.4249   5.5380   6.1190   6.1554   6.7494   7.3621   7.3736   7.7452
     8.3520   8.7314   8.9682   9.0628   9.3073   9.4365   9.6096   9.6934
     9.8403  10.3492  10.4162  11.2258  11.9404  11.9896  12.0545  12.1542
    12.2584  12.3119  12.4089  12.4468  12.5539  12.6639  12.7204  12.7872
    14.2305  14.4061  14.6753  14.8265  14.8527  14.9694  15.4646  15.4743
    15.8604  15.9905  16.1894

          k = 0.3333 0.3333 0.3333 (  9180 PWs)   bands (ev):

   -73.3949 -73.3948 -73.3948 -73.3948 -39.5751 -39.5746 -39.5746 -39.5744
   -39.5726 -39.5726 -39.5722 -39.5722 -39.3198 -39.3197 -39.3197 -39.3196
    -3.0345  -2.3551  -2.3390  -2.3390   0.3653   0.3653   0.5978   0.7069
     5.5601   6.0412   6.0412   6.4228   7.0902   7.0902   7.4261   8.2194
     8.2194   8.5912   8.5912   8.8119   9.7273   9.8039   9.8039  10.1176
    10.1176  10.4327  10.7466  10.7466  11.9345  11.9345  11.9595  12.0817
    12.0817  12.1939  12.3323  12.3323  12.4686  12.6407  12.6407  12.7103
    14.2620  14.7022  14.7502  14.7502  14.9315  14.9315  15.4752  15.4752
    15.5425  15.8050  16.1691

     the Fermi energy is    13.1867 ev

!    total energy              =   -1847.86598692 Ry
     total all-electron energy =    -16569.861207 Ry
     estimated scf accuracy    <       0.00001245 Ry
     smearing contrib. (-TS)   =       0.00001612 Ry
     internal energy E=F+TS    =   -1847.86600303 Ry

     The total energy is F=E-TS. E is the sum of the following terms:
     one-electron contribution =    -625.55922329 Ry
     hartree contribution      =     380.72633417 Ry
     xc contribution           =    -196.78145576 Ry
     ewald contribution        =    -748.46163610 Ry
     one-center paw contrib.   =    -657.79002205 Ry

     convergence has been achieved in  10 iterations

     Forces acting on atoms (cartesian axes, Ry/au):

     atom    1 type  1   force =     0.00000000    0.00000000   -0.00000000
     atom    2 type  1   force =    -0.00000000    0.00000000    0.00000000
     atom    3 type  1   force =     0.00000000   -0.00000000    0.00000000
     atom    4 type  1   force =     0.00000000    0.00000000   -0.00000000
     atom    5 type  2   force =    -0.00765259    0.00765259   -0.00765259
     atom    6 type  2   force =     0.00765259   -0.00765259   -0.00765259
     atom    7 type  2   force =    -0.00765259   -0.00765259    0.00765259
     atom    8 type  2   force =     0.00765259    0.00765259    0.00765259
     atom    9 type  2   force =    -0.00765259   -0.00765259   -0.00765259
     atom   10 type  2   force =     0.00765259    0.00765259   -0.00765259
     atom   11 type  2   force =    -0.00765259    0.00765259    0.00765259
     atom   12 type  2   force =     0.00765259   -0.00765259    0.00765259

     Total force =     0.037490     Total SCF correction =     0.004812
     SCF correction compared to forces is large: reduce conv_thr to get better values


     Computing stress (Cartesian axis) and pressure

          total   stress  (Ry/bohr**3)                   (kbar)     P=        7.74
   0.00005259   0.00000000   0.00000000            7.74        0.00        0.00
   0.00000000   0.00005259   0.00000000            0.00        7.74        0.00
   0.00000000   0.00000000   0.00005259            0.00        0.00        7.74


     Writing all to output data dir ./work/pwscf.save/

     init_run     :      1.30s CPU      1.34s WALL (       1 calls)
     electrons    :     10.08s CPU     10.87s WALL (       1 calls)
     forces       :      0.40s CPU      0.42s WALL (       1 calls)
     stress       :      1.30s CPU      1.30s WALL (       1 calls)

     Called by init_run:
     wfcinit      :      0.18s CPU      0.20s WALL (       1 calls)
     potinit      :      0.37s CPU      0.37s WALL (       1 calls)
     hinit0       :      0.53s CPU      0.54s WALL (       1 calls)

     Called by electrons:
     c_bands      :      4.85s CPU      5.10s WALL (      10 calls)
     sum_band     :      2.10s CPU      2.43s WALL (      10 calls)
     v_of_rho     :      0.49s CPU      0.49s WALL (      11 calls)
     newd         :      1.28s CPU      1.42s WALL (      11 calls)
     PAW_pot      :      1.56s CPU      1.57s WALL (      11 calls)
     mix_rho      :      0.05s CPU      0.06s WALL (      10 calls)

     Called by c_bands:
     init_us_2    :      0.04s CPU      0.04s WALL (      92 calls)
     init_us_2:cp :      0.04s CPU      0.04s WALL (      92 calls)
     cegterg      :      4.71s CPU      4.82s WALL (      40 calls)

     Called by *egterg:
     cdiaghg      :      0.49s CPU      0.50s WALL (     156 calls)
     h_psi        :      2.97s CPU      3.08s WALL (     160 calls)
     s_psi        :      0.18s CPU      0.19s WALL (     160 calls)
     g_psi        :      0.02s CPU      0.02s WALL (     116 calls)

     Called by h_psi:
     h_psi:calbec :      0.31s CPU      0.33s WALL (     160 calls)
     vloc_psi     :      2.45s CPU      2.53s WALL (     160 calls)
     add_vuspsi   :      0.19s CPU      0.20s WALL (     160 calls)

     General routines
     calbec       :      0.54s CPU      0.55s WALL (     220 calls)
     fft          :      0.73s CPU      0.74s WALL (     166 calls)
     ffts         :      0.14s CPU      0.14s WALL (      21 calls)
     fftw         :      2.75s CPU      2.83s WALL (   16134 calls)
     interpolate  :      0.16s CPU      0.16s WALL (      11 calls)

     Parallel routines

     PWSCF        :     13.21s CPU     15.09s WALL


   This run was terminated on:  14:48:50  20Sep2023            

=------------------------------------------------------------------------------=
   JOB DONE.
=------------------------------------------------------------------------------=
