
     Program PWSCF v.7.1 starts on 20Sep2023 at 15:11:27 

     This program is part of the open-source Quantum ESPRESSO suite
     for quantum simulation of materials; please cite
         "P. Giannozzi et al., J. Phys.:Condens. Matter 21 395502 (2009);
         "P. Giannozzi et al., J. Phys.:Condens. Matter 29 465901 (2017);
         "P. Giannozzi et al., J. Chem. Phys. 152 154105 (2020);
          URL http://www.quantum-espresso.org", 
     in publications or presentations arising from this work. More details at
     http://www.quantum-espresso.org/quote

     Parallel version (MPI & OpenMP), running on      10 processor cores
     Number of MPI processes:                10
     Threads/MPI process:                     1

     MPI processes distributed on     1 nodes
     12952 MiB available memory on the printing compute node when the environment starts

     Waiting for input...
     Reading input from standard input

     Current dimensions of program PWSCF are:
     Max number of different atomic species (ntypx) = 10
     Max number of k-points (npk) =  40000
     Max angular momentum in pseudopotentials (lmaxx) =  4
     file S.pbe-n-kjpaw_psl.0.1.UPF: wavefunction(s)  3P renormalized
     file Fe.pbe-spn-kjpaw_psl.0.2.1.UPF: wavefunction(s)  3D renormalized
     Message from routine setup:
     using ibrav=0 with symmetry is DISCOURAGED, use correct ibrav instead

     R & G space division:  proc/nbgrp/npool/nimage =      10
     Subspace diagonalization in iterative solution of the eigenvalue problem:
     a serial algorithm will be used


     Parallelization info
     --------------------
     sticks:   dense  smooth     PW     G-vecs:    dense   smooth      PW
     Min         648     210     57                39186     7322    1037
     Max         649     212     58                39189     7323    1040
     Sum        6485    2109    577               391871    73223   10395

     Using Slab Decomposition



     bravais-lattice index     =            0
     lattice parameter (alat)  =      10.1985  a.u.
     unit-cell volume          =    1060.7436 (a.u.)^3
     number of atoms/cell      =           12
     number of atomic types    =            2
     number of electrons       =       112.00
     number of Kohn-Sham states=           67
     kinetic-energy cutoff     =      64.0000  Ry
     charge density cutoff     =     782.0000  Ry
     scf convergence threshold =      1.0E-06
     mixing beta               =       0.7000
     number of iterations used =            8  plain     mixing
     Exchange-correlation= SLA  PW   PBX  PBC
                           (   1   4   3   4   0   0   0)

     celldm(1)=  10.198512  celldm(2)=   0.000000  celldm(3)=   0.000000
     celldm(4)=   0.000000  celldm(5)=   0.000000  celldm(6)=   0.000000

     crystal axes: (cart. coord. in units of alat)
               a(1) = (   1.000000   0.000000   0.000000 )  
               a(2) = (   0.000000   1.000000   0.000000 )  
               a(3) = (   0.000000   0.000000   1.000000 )  

     reciprocal axes: (cart. coord. in units 2 pi/alat)
               b(1) = (  1.000000  0.000000  0.000000 )  
               b(2) = (  0.000000  1.000000  0.000000 )  
               b(3) = (  0.000000  0.000000  1.000000 )  


     PseudoPot. # 1 for S  read from file:
     ./../../pseudo/psl031_PBE/S.pbe-n-kjpaw_psl.0.1.UPF
     MD5 check sum: f5498c628d6abfb9e86f5ff98a19f17e
     Pseudo is Projector augmented-wave + core cor, Zval =  6.0
     Generated using 'atomic' code by A. Dal Corso  v.7.2
     Shape of augmentation charge: PSQ
     Using radial grid of 1151 points,  4 beta functions with: 
                l(1) =   0
                l(2) =   0
                l(3) =   1
                l(4) =   1
     Q(r) pseudized with 0 coefficients 


     PseudoPot. # 2 for Fe read from file:
     ./../../pseudo/psl031_PBE/Fe.pbe-spn-kjpaw_psl.0.2.1.UPF
     MD5 check sum: 7e4be4449e4de31c8b6269baf83c12b4
     Pseudo is Projector augmented-wave + core cor, Zval = 16.0
     Generated using 'atomic' code by A. Dal Corso  v.7.2
     Shape of augmentation charge: PSQ
     Using radial grid of 1191 points,  6 beta functions with: 
                l(1) =   0
                l(2) =   0
                l(3) =   1
                l(4) =   1
                l(5) =   2
                l(6) =   2
     Q(r) pseudized with 0 coefficients 


     atomic species   valence    mass     pseudopotential
        S              6.00    32.06750     S ( 1.00)
        Fe            16.00    55.84500     Fe( 1.00)

     24 Sym. Ops., with inversion, found (18 have fractional translation)



   Cartesian axes

     site n.     atom                  positions (alat units)
         1           Fe  tau(   1) = (   0.0000000   0.5000000   0.5000000  )
         2           Fe  tau(   2) = (   0.5000000   0.5000000   0.0000000  )
         3           Fe  tau(   3) = (   0.5000000   0.0000000   0.5000000  )
         4           Fe  tau(   4) = (   0.0000000   0.0000000   0.0000000  )
         5           S   tau(   5) = (   0.3853801   0.1146199   0.8853801  )
         6           S   tau(   6) = (   0.1146199   0.8853801   0.3853801  )
         7           S   tau(   7) = (   0.8853801   0.3853801   0.1146199  )
         8           S   tau(   8) = (   0.6146199   0.6146199   0.6146199  )
         9           S   tau(   9) = (   0.3853801   0.3853801   0.3853801  )
        10           S   tau(  10) = (   0.1146199   0.6146199   0.8853801  )
        11           S   tau(  11) = (   0.8853801   0.1146199   0.6146199  )
        12           S   tau(  12) = (   0.6146199   0.8853801   0.1146199  )

     number of k points=     4  Methfessel-Paxton smearing, width (Ry)=  0.0100
                       cart. coord. in units 2pi/alat
        k(    1) = (   0.0000000   0.0000000   0.0000000), wk =   0.0740741
        k(    2) = (   0.0000000   0.0000000   0.3333333), wk =   0.4444444
        k(    3) = (   0.0000000   0.3333333   0.3333333), wk =   0.8888889
        k(    4) = (   0.3333333   0.3333333   0.3333333), wk =   0.5925926

     Dense  grid:   391871 G-vectors     FFT dimensions: (  96,  96,  96)

     Smooth grid:    73223 G-vectors     FFT dimensions: (  54,  54,  54)

     Estimated max dynamical RAM per process >     159.36 MB

     Estimated total dynamical RAM >       1.56 GB

     Check: negative core charge=   -0.000009

     Initial potential from superposition of free atoms

     starting charge     111.9980, renormalised to     112.0000
     Starting wfcs are   84 randomized atomic wfcs
     Checking if some PAW data can be deallocated... 

     total cpu time spent up to now is        1.7 secs

     per-process dynamical memory:    43.0 Mb

     Self-consistent Calculation

     iteration #  1     ecut=    64.00 Ry     beta= 0.70
     Davidson diagonalization with overlap
     ethr =  1.00E-02,  avg # of iterations =  2.5

     total cpu time spent up to now is        2.8 secs

     total energy              =   -1845.97829246 Ry
     estimated scf accuracy    <       2.58388728 Ry

     iteration #  2     ecut=    64.00 Ry     beta= 0.70
     Davidson diagonalization with overlap
     ethr =  2.31E-03,  avg # of iterations =  6.5

     total cpu time spent up to now is        4.1 secs

     total energy              =   -1842.77808906 Ry
     estimated scf accuracy    <      56.01017603 Ry

     iteration #  3     ecut=    64.00 Ry     beta= 0.70
     Davidson diagonalization with overlap
     ethr =  2.31E-03,  avg # of iterations =  5.0

     total cpu time spent up to now is        5.4 secs

     total energy              =   -1847.82448364 Ry
     estimated scf accuracy    <       0.05239012 Ry

     iteration #  4     ecut=    64.00 Ry     beta= 0.70
     Davidson diagonalization with overlap
     ethr =  4.68E-05,  avg # of iterations =  6.0

     total cpu time spent up to now is        6.9 secs

     total energy              =   -1847.85882878 Ry
     estimated scf accuracy    <       0.12122056 Ry

     iteration #  5     ecut=    64.00 Ry     beta= 0.70
     Davidson diagonalization with overlap
     ethr =  4.68E-05,  avg # of iterations =  2.0

     total cpu time spent up to now is        7.9 secs

     total energy              =   -1847.86435257 Ry
     estimated scf accuracy    <       0.01011931 Ry

     iteration #  6     ecut=    64.00 Ry     beta= 0.70
     Davidson diagonalization with overlap
     ethr =  9.04E-06,  avg # of iterations =  4.8

     total cpu time spent up to now is        9.0 secs

     total energy              =   -1847.86565525 Ry
     estimated scf accuracy    <       0.00037638 Ry

     iteration #  7     ecut=    64.00 Ry     beta= 0.70
     Davidson diagonalization with overlap
     ethr =  3.36E-07,  avg # of iterations =  5.5

     total cpu time spent up to now is       10.3 secs

     total energy              =   -1847.86600255 Ry
     estimated scf accuracy    <       0.00006474 Ry

     iteration #  8     ecut=    64.00 Ry     beta= 0.70
     Davidson diagonalization with overlap
     ethr =  5.78E-08,  avg # of iterations =  2.0

     total cpu time spent up to now is       11.3 secs

     total energy              =   -1847.86600503 Ry
     estimated scf accuracy    <       0.00001100 Ry

     iteration #  9     ecut=    64.00 Ry     beta= 0.70
     Davidson diagonalization with overlap
     ethr =  9.82E-09,  avg # of iterations =  3.5

     total cpu time spent up to now is       12.5 secs

     total energy              =   -1847.86600832 Ry
     estimated scf accuracy    <       0.00000231 Ry

     iteration # 10     ecut=    64.00 Ry     beta= 0.70
     Davidson diagonalization with overlap
     ethr =  2.06E-09,  avg # of iterations =  2.5

     total cpu time spent up to now is       13.4 secs

     End of self-consistent calculation

          k = 0.0000 0.0000 0.0000 (  9093 PWs)   bands (ev):

   -73.4021 -73.4019 -73.4019 -73.4019 -39.5816 -39.5816 -39.5816 -39.5796
   -39.5796 -39.5788 -39.5788 -39.5788 -39.3272 -39.3266 -39.3266 -39.3266
    -4.1528  -2.0211  -2.0211  -2.0211   0.5150   0.5150   0.5150   1.9815
     6.1955   6.1955   6.1955   6.9444   6.9444   6.9444   7.7999   7.7999
     7.9214   7.9214   7.9214   7.9811   9.0462   9.0462   9.0462   9.4124
     9.4124  10.2671  10.2671  10.2671  11.7828  11.7828  11.7828  12.3615
    12.3615  12.5023  12.5023  12.5023  12.5143  12.5143  12.5143  12.7789
    13.4830  14.4092  14.4092  14.4092  16.0733  16.0733  16.0733  16.1957
    16.1957  16.1957  16.8033

          k = 0.0000 0.0000 0.3333 (  9142 PWs)   bands (ev):

   -73.4021 -73.4020 -73.4019 -73.4019 -39.5816 -39.5813 -39.5812 -39.5803
   -39.5795 -39.5794 -39.5793 -39.5791 -39.3272 -39.3268 -39.3268 -39.3267
    -3.7473  -2.7336  -1.9431  -1.9395   0.6341   0.6945   0.7212   1.4105
     5.7446   5.8087   5.8367   6.3850   6.6756   6.9326   7.8004   8.0743
     8.1142   8.2414   8.3914   8.9865   9.0935   9.1475   9.5718   9.6140
     9.8385  10.0047  10.1454  10.7870  11.8657  12.0605  12.1386  12.2418
    12.3179  12.3566  12.4167  12.4495  12.5153  12.6617  12.7634  12.8011
    14.2488  14.2506  14.5054  14.7293  15.1245  15.5023  15.5724  15.8087
    15.9746  16.0506  16.4475

          k = 0.0000 0.3333 0.3333 (  9198 PWs)   bands (ev):

   -73.4021 -73.4020 -73.4020 -73.4020 -39.5817 -39.5815 -39.5808 -39.5807
   -39.5801 -39.5798 -39.5792 -39.5792 -39.3272 -39.3270 -39.3270 -39.3269
    -3.3699  -2.4804  -2.4775  -2.0555   0.5834   0.6525   0.8200   1.0406
     5.4228   5.5356   6.1168   6.1537   6.7470   7.3596   7.3710   7.7424
     8.3497   8.7291   8.9656   9.0607   9.3044   9.4332   9.6063   9.6903
     9.8373  10.3466  10.4137  11.2231  11.9354  11.9846  12.0494  12.1491
    12.2531  12.3064  12.4035  12.4415  12.5486  12.6583  12.7149  12.7814
    14.2255  14.4010  14.6703  14.8223  14.8480  14.9650  15.4610  15.4705
    15.8574  15.9876  16.1866

          k = 0.3333 0.3333 0.3333 (  9180 PWs)   bands (ev):

   -73.4021 -73.4020 -73.4020 -73.4020 -39.5818 -39.5814 -39.5814 -39.5811
   -39.5794 -39.5794 -39.5790 -39.5790 -39.3271 -39.3270 -39.3270 -39.3269
    -3.0350  -2.3552  -2.3390  -2.3390   0.3630   0.3630   0.5955   0.7050
     5.5580   6.0388   6.0388   6.4207   7.0880   7.0880   7.4244   8.2168
     8.2168   8.5888   8.5888   8.8103   9.7241   9.8008   9.8008  10.1144
    10.1144  10.4300  10.7438  10.7438  11.9292  11.9292  11.9547  12.0763
    12.0763  12.1892  12.3272  12.3272  12.4627  12.6351  12.6351  12.7045
    14.2567  14.6974  14.7454  14.7454  14.9273  14.9273  15.4712  15.4713
    15.5389  15.8019  16.1664

     the Fermi energy is    13.1819 ev

!    total energy              =   -1847.86600823 Ry
     total all-electron energy =    -16569.861228 Ry
     estimated scf accuracy    <       0.00000035 Ry
     smearing contrib. (-TS)   =       0.00001552 Ry
     internal energy E=F+TS    =   -1847.86602375 Ry

     The total energy is F=E-TS. E is the sum of the following terms:
     one-electron contribution =    -625.59143112 Ry
     hartree contribution      =     380.75486758 Ry
     xc contribution           =    -196.77955849 Ry
     ewald contribution        =    -748.46163610 Ry
     one-center paw contrib.   =    -657.78826562 Ry

     convergence has been achieved in  10 iterations

     Forces acting on atoms (cartesian axes, Ry/au):

     atom    1 type  2   force =    -0.00000000   -0.00000000    0.00000000
     atom    2 type  2   force =     0.00000000    0.00000000    0.00000000
     atom    3 type  2   force =     0.00000000    0.00000000    0.00000000
     atom    4 type  2   force =    -0.00000000    0.00000000   -0.00000000
     atom    5 type  1   force =    -0.00812576    0.00812576   -0.00812576
     atom    6 type  1   force =     0.00812576   -0.00812576   -0.00812576
     atom    7 type  1   force =    -0.00812576   -0.00812576    0.00812576
     atom    8 type  1   force =     0.00812576    0.00812576    0.00812576
     atom    9 type  1   force =    -0.00812576   -0.00812576   -0.00812576
     atom   10 type  1   force =     0.00812576    0.00812576   -0.00812576
     atom   11 type  1   force =    -0.00812576    0.00812576    0.00812576
     atom   12 type  1   force =     0.00812576   -0.00812576    0.00812576

     Total force =     0.039808     Total SCF correction =     0.000174


     Computing stress (Cartesian axis) and pressure

          total   stress  (Ry/bohr**3)                   (kbar)     P=        5.21
   0.00003544   0.00000000   0.00000000            5.21        0.00        0.00
   0.00000000   0.00003544   0.00000000            0.00        5.21        0.00
   0.00000000   0.00000000   0.00003544            0.00        0.00        5.21


     Writing all to output data dir ./work/pwscf.save/

     init_run     :      1.27s CPU      1.39s WALL (       1 calls)
     electrons    :     10.68s CPU     11.80s WALL (       1 calls)
     forces       :      0.37s CPU      0.39s WALL (       1 calls)
     stress       :      1.24s CPU      1.33s WALL (       1 calls)

     Called by init_run:
     wfcinit      :      0.21s CPU      0.23s WALL (       1 calls)
     potinit      :      0.37s CPU      0.38s WALL (       1 calls)
     hinit0       :      0.52s CPU      0.55s WALL (       1 calls)

     Called by electrons:
     c_bands      :      5.51s CPU      6.13s WALL (      10 calls)
     sum_band     :      2.09s CPU      2.37s WALL (      10 calls)
     v_of_rho     :      0.48s CPU      0.48s WALL (      11 calls)
     newd         :      1.19s CPU      1.36s WALL (      11 calls)
     PAW_pot      :      1.57s CPU      1.57s WALL (      11 calls)
     mix_rho      :      0.05s CPU      0.05s WALL (      10 calls)

     Called by c_bands:
     init_us_2    :      0.04s CPU      0.04s WALL (      92 calls)
     init_us_2:cp :      0.04s CPU      0.04s WALL (      92 calls)
     cegterg      :      5.38s CPU      5.69s WALL (      40 calls)

     Called by *egterg:
     cdiaghg      :      0.66s CPU      0.68s WALL (     201 calls)
     h_psi        :      3.19s CPU      3.47s WALL (     205 calls)
     s_psi        :      0.21s CPU      0.22s WALL (     205 calls)
     g_psi        :      0.02s CPU      0.02s WALL (     161 calls)

     Called by h_psi:
     h_psi:calbec :      0.36s CPU      0.39s WALL (     205 calls)
     vloc_psi     :      2.60s CPU      2.83s WALL (     205 calls)
     add_vuspsi   :      0.22s CPU      0.24s WALL (     205 calls)

     General routines
     calbec       :      0.55s CPU      0.59s WALL (     265 calls)
     fft          :      0.74s CPU      0.74s WALL (     166 calls)
     ffts         :      0.14s CPU      0.14s WALL (      21 calls)
     fftw         :      2.86s CPU      3.13s WALL (   18914 calls)
     interpolate  :      0.16s CPU      0.16s WALL (      11 calls)

     Parallel routines

     PWSCF        :     13.76s CPU     16.11s WALL


   This run was terminated on:  15:11:43  20Sep2023            

=------------------------------------------------------------------------------=
   JOB DONE.
=------------------------------------------------------------------------------=
