
     Program PWSCF v.7.1 starts on 21Sep2023 at 17:32:33 

     This program is part of the open-source Quantum ESPRESSO suite
     for quantum simulation of materials; please cite
         "P. Giannozzi et al., J. Phys.:Condens. Matter 21 395502 (2009);
         "P. Giannozzi et al., J. Phys.:Condens. Matter 29 465901 (2017);
         "P. Giannozzi et al., J. Chem. Phys. 152 154105 (2020);
          URL http://www.quantum-espresso.org", 
     in publications or presentations arising from this work. More details at
     http://www.quantum-espresso.org/quote

     Parallel version (MPI & OpenMP), running on      10 processor cores
     Number of MPI processes:                10
     Threads/MPI process:                     1

     MPI processes distributed on     1 nodes
     11850 MiB available memory on the printing compute node when the environment starts

     Waiting for input...
     Reading input from standard input

     Current dimensions of program PWSCF are:
     Max number of different atomic species (ntypx) = 10
     Max number of k-points (npk) =  40000
     Max angular momentum in pseudopotentials (lmaxx) =  4

     Atomic positions and unit cell read from directory:
     ./work/pwscf.save/

     file S.pbe-n-kjpaw_psl.1.0.0.UPF: wavefunction(s)  3S 3P renormalized
     file Fe.pbe-spn-kjpaw_psl.1.0.0.UPF: wavefunction(s)  3P 3D renormalized
     Message from routine setup:
     using ibrav=0 with symmetry is DISCOURAGED, use correct ibrav instead

     R & G space division:  proc/nbgrp/npool/nimage =      10
     Subspace diagonalization in iterative solution of the eigenvalue problem:
     a serial algorithm will be used


     Parallelization info
     --------------------
     sticks:   dense  smooth     PW     G-vecs:    dense   smooth      PW
     Min         411     236     66                19790     8572    1296
     Max         413     237     67                19791     8575    1297
     Sum        4117    2361    665               197909    85735   12965

     Using Slab Decomposition



     bravais-lattice index     =            0
     lattice parameter (alat)  =      10.1985  a.u.
     unit-cell volume          =    1060.7436 (a.u.)^3
     number of atoms/cell      =           12
     number of atomic types    =            2
     number of electrons       =       112.00
     number of Kohn-Sham states=           84
     kinetic-energy cutoff     =      71.0000  Ry
     charge density cutoff     =     496.0000  Ry
     Exchange-correlation= SLA  PW   PBX  PBC
                           (   1   4   3   4   0   0   0)

     celldm(1)=  10.198512  celldm(2)=   0.000000  celldm(3)=   0.000000
     celldm(4)=   0.000000  celldm(5)=   0.000000  celldm(6)=   0.000000

     crystal axes: (cart. coord. in units of alat)
               a(1) = (   1.000000   0.000000   0.000000 )  
               a(2) = (   0.000000   1.000000   0.000000 )  
               a(3) = (   0.000000   0.000000   1.000000 )  

     reciprocal axes: (cart. coord. in units 2 pi/alat)
               b(1) = (  1.000000  0.000000  0.000000 )  
               b(2) = (  0.000000  1.000000  0.000000 )  
               b(3) = (  0.000000  0.000000  1.000000 )  


     PseudoPot. # 1 for S  read from file:
     ./../../pseudo/psl100_PBE/S.pbe-n-kjpaw_psl.1.0.0.UPF
     MD5 check sum: 9cd113d867db26c38f4eaae6a4421758
     Pseudo is Projector augmented-wave + core cor, Zval =  6.0
     Generated using 'atomic' code by A. Dal Corso  v.7.2
     Shape of augmentation charge: PSQ
     Using radial grid of 1151 points,  6 beta functions with: 
                l(1) =   0
                l(2) =   0
                l(3) =   1
                l(4) =   1
                l(5) =   2
                l(6) =   2
     Q(r) pseudized with 0 coefficients 


     PseudoPot. # 2 for Fe read from file:
     ./../../pseudo/psl100_PBE/Fe.pbe-spn-kjpaw_psl.1.0.0.UPF
     MD5 check sum: bcb9ab80563fcd4521c5f14da65cef4b
     Pseudo is Projector augmented-wave + core cor, Zval = 16.0
     Generated using 'atomic' code by A. Dal Corso  v.7.2
     Shape of augmentation charge: PSQ
     Using radial grid of 1191 points,  6 beta functions with: 
                l(1) =   0
                l(2) =   0
                l(3) =   1
                l(4) =   1
                l(5) =   2
                l(6) =   2
     Q(r) pseudized with 0 coefficients 


     atomic species   valence    mass     pseudopotential
        S              6.00    32.06750     S ( 1.00)
        Fe            16.00    55.84500     Fe( 1.00)

     24 Sym. Ops., with inversion, found (18 have fractional translation)


                                    s                        frac. trans.

      isym =  1     identity                                     

 cryst.   s( 1) = (     1          0          0      )
                  (     0          1          0      )
                  (     0          0          1      )

 cart.    s( 1) = (  1.0000000  0.0000000  0.0000000 )
                  (  0.0000000  1.0000000  0.0000000 )
                  (  0.0000000  0.0000000  1.0000000 )


      isym =  2     180 deg rotation - cart. axis [0,0,1]        

 cryst.   s( 2) = (    -1          0          0      )    f =( -0.5000000 )
                  (     0         -1          0      )       (  0.0000000 )
                  (     0          0          1      )       ( -0.5000000 )

 cart.    s( 2) = ( -1.0000000  0.0000000  0.0000000 )    f =( -0.5000000 )
                  (  0.0000000 -1.0000000  0.0000000 )       (  0.0000000 )
                  (  0.0000000  0.0000000  1.0000000 )       ( -0.5000000 )


      isym =  3     180 deg rotation - cart. axis [0,1,0]        

 cryst.   s( 3) = (    -1          0          0      )    f =(  0.0000000 )
                  (     0          1          0      )       ( -0.5000000 )
                  (     0          0         -1      )       ( -0.5000000 )

 cart.    s( 3) = ( -1.0000000  0.0000000  0.0000000 )    f =(  0.0000000 )
                  (  0.0000000  1.0000000  0.0000000 )       ( -0.5000000 )
                  (  0.0000000  0.0000000 -1.0000000 )       ( -0.5000000 )


      isym =  4     180 deg rotation - cart. axis [1,0,0]        

 cryst.   s( 4) = (     1          0          0      )    f =(  0.5000000 )
                  (     0         -1          0      )       ( -0.5000000 )
                  (     0          0         -1      )       (  0.0000000 )

 cart.    s( 4) = (  1.0000000  0.0000000  0.0000000 )    f =(  0.5000000 )
                  (  0.0000000 -1.0000000  0.0000000 )       ( -0.5000000 )
                  (  0.0000000  0.0000000 -1.0000000 )       (  0.0000000 )


      isym =  5     120 deg rotation - cart. axis [-1,-1,-1]     

 cryst.   s( 5) = (     0          0          1      )
                  (     1          0          0      )
                  (     0          1          0      )

 cart.    s( 5) = (  0.0000000  1.0000000  0.0000000 )
                  (  0.0000000  0.0000000  1.0000000 )
                  (  1.0000000  0.0000000  0.0000000 )


      isym =  6     120 deg rotation - cart. axis [-1,1,1]       

 cryst.   s( 6) = (     0          0         -1      )    f =(  0.0000000 )
                  (    -1          0          0      )       ( -0.5000000 )
                  (     0          1          0      )       ( -0.5000000 )

 cart.    s( 6) = (  0.0000000 -1.0000000  0.0000000 )    f =(  0.0000000 )
                  (  0.0000000  0.0000000  1.0000000 )       ( -0.5000000 )
                  ( -1.0000000  0.0000000  0.0000000 )       ( -0.5000000 )


      isym =  7     120 deg rotation - cart. axis [1,1,-1]       

 cryst.   s( 7) = (     0          0         -1      )    f =(  0.5000000 )
                  (     1          0          0      )       ( -0.5000000 )
                  (     0         -1          0      )       (  0.0000000 )

 cart.    s( 7) = (  0.0000000  1.0000000  0.0000000 )    f =(  0.5000000 )
                  (  0.0000000  0.0000000 -1.0000000 )       ( -0.5000000 )
                  ( -1.0000000  0.0000000  0.0000000 )       (  0.0000000 )


      isym =  8     120 deg rotation - cart. axis [1,-1,1]       

 cryst.   s( 8) = (     0          0          1      )    f =( -0.5000000 )
                  (    -1          0          0      )       (  0.0000000 )
                  (     0         -1          0      )       ( -0.5000000 )

 cart.    s( 8) = (  0.0000000 -1.0000000  0.0000000 )    f =( -0.5000000 )
                  (  0.0000000  0.0000000 -1.0000000 )       (  0.0000000 )
                  (  1.0000000  0.0000000  0.0000000 )       ( -0.5000000 )


      isym =  9     120 deg rotation - cart. axis [1,1,1]        

 cryst.   s( 9) = (     0          1          0      )
                  (     0          0          1      )
                  (     1          0          0      )

 cart.    s( 9) = (  0.0000000  0.0000000  1.0000000 )
                  (  1.0000000  0.0000000  0.0000000 )
                  (  0.0000000  1.0000000  0.0000000 )


      isym = 10     120 deg rotation - cart. axis [-1,1,-1]      

 cryst.   s(10) = (     0         -1          0      )    f =(  0.5000000 )
                  (     0          0         -1      )       ( -0.5000000 )
                  (     1          0          0      )       (  0.0000000 )

 cart.    s(10) = (  0.0000000  0.0000000  1.0000000 )    f =(  0.5000000 )
                  ( -1.0000000  0.0000000  0.0000000 )       ( -0.5000000 )
                  (  0.0000000 -1.0000000  0.0000000 )       (  0.0000000 )


      isym = 11     120 deg rotation - cart. axis [1,-1,-1]      

 cryst.   s(11) = (     0         -1          0      )    f =( -0.5000000 )
                  (     0          0          1      )       (  0.0000000 )
                  (    -1          0          0      )       ( -0.5000000 )

 cart.    s(11) = (  0.0000000  0.0000000 -1.0000000 )    f =( -0.5000000 )
                  ( -1.0000000  0.0000000  0.0000000 )       (  0.0000000 )
                  (  0.0000000  1.0000000  0.0000000 )       ( -0.5000000 )


      isym = 12     120 deg rotation - cart. axis [-1,-1,1]      

 cryst.   s(12) = (     0          1          0      )    f =(  0.0000000 )
                  (     0          0         -1      )       ( -0.5000000 )
                  (    -1          0          0      )       ( -0.5000000 )

 cart.    s(12) = (  0.0000000  0.0000000 -1.0000000 )    f =(  0.0000000 )
                  (  1.0000000  0.0000000  0.0000000 )       ( -0.5000000 )
                  (  0.0000000 -1.0000000  0.0000000 )       ( -0.5000000 )


      isym = 13     inversion                                    

 cryst.   s(13) = (    -1          0          0      )
                  (     0         -1          0      )
                  (     0          0         -1      )

 cart.    s(13) = ( -1.0000000  0.0000000  0.0000000 )
                  (  0.0000000 -1.0000000  0.0000000 )
                  (  0.0000000  0.0000000 -1.0000000 )


      isym = 14     inv. 180 deg rotation - cart. axis [0,0,1]   

 cryst.   s(14) = (     1          0          0      )    f =(  0.5000000 )
                  (     0          1          0      )       (  0.0000000 )
                  (     0          0         -1      )       ( -0.5000000 )

 cart.    s(14) = (  1.0000000  0.0000000  0.0000000 )    f =(  0.5000000 )
                  (  0.0000000  1.0000000  0.0000000 )       (  0.0000000 )
                  (  0.0000000  0.0000000 -1.0000000 )       ( -0.5000000 )


      isym = 15     inv. 180 deg rotation - cart. axis [0,1,0]   

 cryst.   s(15) = (     1          0          0      )    f =(  0.0000000 )
                  (     0         -1          0      )       ( -0.5000000 )
                  (     0          0          1      )       ( -0.5000000 )

 cart.    s(15) = (  1.0000000  0.0000000  0.0000000 )    f =(  0.0000000 )
                  (  0.0000000 -1.0000000  0.0000000 )       ( -0.5000000 )
                  (  0.0000000  0.0000000  1.0000000 )       ( -0.5000000 )


      isym = 16     inv. 180 deg rotation - cart. axis [1,0,0]   

 cryst.   s(16) = (    -1          0          0      )    f =( -0.5000000 )
                  (     0          1          0      )       ( -0.5000000 )
                  (     0          0          1      )       (  0.0000000 )

 cart.    s(16) = ( -1.0000000  0.0000000  0.0000000 )    f =( -0.5000000 )
                  (  0.0000000  1.0000000  0.0000000 )       ( -0.5000000 )
                  (  0.0000000  0.0000000  1.0000000 )       (  0.0000000 )


      isym = 17     inv. 120 deg rotation - cart. axis [-1,-1,-1]

 cryst.   s(17) = (     0          0         -1      )
                  (    -1          0          0      )
                  (     0         -1          0      )

 cart.    s(17) = (  0.0000000 -1.0000000  0.0000000 )
                  (  0.0000000  0.0000000 -1.0000000 )
                  ( -1.0000000  0.0000000  0.0000000 )


      isym = 18     inv. 120 deg rotation - cart. axis [-1,1,1]  

 cryst.   s(18) = (     0          0          1      )    f =(  0.0000000 )
                  (     1          0          0      )       ( -0.5000000 )
                  (     0         -1          0      )       ( -0.5000000 )

 cart.    s(18) = (  0.0000000  1.0000000  0.0000000 )    f =(  0.0000000 )
                  (  0.0000000  0.0000000 -1.0000000 )       ( -0.5000000 )
                  (  1.0000000  0.0000000  0.0000000 )       ( -0.5000000 )


      isym = 19     inv. 120 deg rotation - cart. axis [1,1,-1]  

 cryst.   s(19) = (     0          0          1      )    f =( -0.5000000 )
                  (    -1          0          0      )       ( -0.5000000 )
                  (     0          1          0      )       (  0.0000000 )

 cart.    s(19) = (  0.0000000 -1.0000000  0.0000000 )    f =( -0.5000000 )
                  (  0.0000000  0.0000000  1.0000000 )       ( -0.5000000 )
                  (  1.0000000  0.0000000  0.0000000 )       (  0.0000000 )


      isym = 20     inv. 120 deg rotation - cart. axis [1,-1,1]  

 cryst.   s(20) = (     0          0         -1      )    f =(  0.5000000 )
                  (     1          0          0      )       (  0.0000000 )
                  (     0          1          0      )       ( -0.5000000 )

 cart.    s(20) = (  0.0000000  1.0000000  0.0000000 )    f =(  0.5000000 )
                  (  0.0000000  0.0000000  1.0000000 )       (  0.0000000 )
                  ( -1.0000000  0.0000000  0.0000000 )       ( -0.5000000 )


      isym = 21     inv. 120 deg rotation - cart. axis [1,1,1]   

 cryst.   s(21) = (     0         -1          0      )
                  (     0          0         -1      )
                  (    -1          0          0      )

 cart.    s(21) = (  0.0000000  0.0000000 -1.0000000 )
                  ( -1.0000000  0.0000000  0.0000000 )
                  (  0.0000000 -1.0000000  0.0000000 )


      isym = 22     inv. 120 deg rotation - cart. axis [-1,1,-1] 

 cryst.   s(22) = (     0          1          0      )    f =( -0.5000000 )
                  (     0          0          1      )       ( -0.5000000 )
                  (    -1          0          0      )       (  0.0000000 )

 cart.    s(22) = (  0.0000000  0.0000000 -1.0000000 )    f =( -0.5000000 )
                  (  1.0000000  0.0000000  0.0000000 )       ( -0.5000000 )
                  (  0.0000000  1.0000000  0.0000000 )       (  0.0000000 )


      isym = 23     inv. 120 deg rotation - cart. axis [1,-1,-1] 

 cryst.   s(23) = (     0          1          0      )    f =(  0.5000000 )
                  (     0          0         -1      )       (  0.0000000 )
                  (     1          0          0      )       ( -0.5000000 )

 cart.    s(23) = (  0.0000000  0.0000000  1.0000000 )    f =(  0.5000000 )
                  (  1.0000000  0.0000000  0.0000000 )       (  0.0000000 )
                  (  0.0000000 -1.0000000  0.0000000 )       ( -0.5000000 )


      isym = 24     inv. 120 deg rotation - cart. axis [-1,-1,1] 

 cryst.   s(24) = (     0         -1          0      )    f =(  0.0000000 )
                  (     0          0          1      )       ( -0.5000000 )
                  (     1          0          0      )       ( -0.5000000 )

 cart.    s(24) = (  0.0000000  0.0000000  1.0000000 )    f =(  0.0000000 )
                  ( -1.0000000  0.0000000  0.0000000 )       ( -0.5000000 )
                  (  0.0000000  1.0000000  0.0000000 )       ( -0.5000000 )


   Cartesian axes

     site n.     atom                  positions (alat units)
         1           Fe  tau(   1) = (   0.0000000   0.5000000   0.5000000  )
         2           Fe  tau(   2) = (   0.5000000   0.5000000   0.0000000  )
         3           Fe  tau(   3) = (   0.5000000   0.0000000   0.5000000  )
         4           Fe  tau(   4) = (   0.0000000   0.0000000   0.0000000  )
         5           S   tau(   5) = (   0.3853801   0.1146199   0.8853801  )
         6           S   tau(   6) = (   0.1146199   0.8853801   0.3853801  )
         7           S   tau(   7) = (   0.8853801   0.3853801   0.1146199  )
         8           S   tau(   8) = (   0.6146199   0.6146199   0.6146199  )
         9           S   tau(   9) = (   0.3853801   0.3853801   0.3853801  )
        10           S   tau(  10) = (   0.1146199   0.6146199   0.8853801  )
        11           S   tau(  11) = (   0.8853801   0.1146199   0.6146199  )
        12           S   tau(  12) = (   0.6146199   0.8853801   0.1146199  )

   Crystallographic axes

     site n.     atom                  positions (cryst. coord.)
         1           Fe  tau(   1) = (  0.0000000  0.5000000  0.5000000  )
         2           Fe  tau(   2) = (  0.5000000  0.5000000  0.0000000  )
         3           Fe  tau(   3) = (  0.5000000  0.0000000  0.5000000  )
         4           Fe  tau(   4) = (  0.0000000  0.0000000  0.0000000  )
         5           S   tau(   5) = (  0.3853801  0.1146199  0.8853801  )
         6           S   tau(   6) = (  0.1146199  0.8853801  0.3853801  )
         7           S   tau(   7) = (  0.8853801  0.3853801  0.1146199  )
         8           S   tau(   8) = (  0.6146199  0.6146199  0.6146199  )
         9           S   tau(   9) = (  0.3853801  0.3853801  0.3853801  )
        10           S   tau(  10) = (  0.1146199  0.6146199  0.8853801  )
        11           S   tau(  11) = (  0.8853801  0.1146199  0.6146199  )
        12           S   tau(  12) = (  0.6146199  0.8853801  0.1146199  )

     number of k points=    81  Methfessel-Paxton smearing, width (Ry)=  0.0100
                       cart. coord. in units 2pi/alat
        k(    1) = (   0.5000000   0.5000000   0.5000000), wk =   0.0246914
        k(    2) = (   0.4750000   0.4750000   0.4750000), wk =   0.0246914
        k(    3) = (   0.4500000   0.4500000   0.4500000), wk =   0.0246914
        k(    4) = (   0.4250000   0.4250000   0.4250000), wk =   0.0246914
        k(    5) = (   0.4000000   0.4000000   0.4000000), wk =   0.0246914
        k(    6) = (   0.3750000   0.3750000   0.3750000), wk =   0.0246914
        k(    7) = (   0.3500000   0.3500000   0.3500000), wk =   0.0246914
        k(    8) = (   0.3250000   0.3250000   0.3250000), wk =   0.0246914
        k(    9) = (   0.3000000   0.3000000   0.3000000), wk =   0.0246914
        k(   10) = (   0.2750000   0.2750000   0.2750000), wk =   0.0246914
        k(   11) = (   0.2500000   0.2500000   0.2500000), wk =   0.0246914
        k(   12) = (   0.2250000   0.2250000   0.2250000), wk =   0.0246914
        k(   13) = (   0.2000000   0.2000000   0.2000000), wk =   0.0246914
        k(   14) = (   0.1750000   0.1750000   0.1750000), wk =   0.0246914
        k(   15) = (   0.1500000   0.1500000   0.1500000), wk =   0.0246914
        k(   16) = (   0.1250000   0.1250000   0.1250000), wk =   0.0246914
        k(   17) = (   0.1000000   0.1000000   0.1000000), wk =   0.0246914
        k(   18) = (   0.0750000   0.0750000   0.0750000), wk =   0.0246914
        k(   19) = (   0.0500000   0.0500000   0.0500000), wk =   0.0246914
        k(   20) = (   0.0250000   0.0250000   0.0250000), wk =   0.0246914
        k(   21) = (   0.0000000   0.0000000   0.0000000), wk =   0.0246914
        k(   22) = (   0.0250000   0.0000000   0.0000000), wk =   0.0246914
        k(   23) = (   0.0500000   0.0000000   0.0000000), wk =   0.0246914
        k(   24) = (   0.0750000   0.0000000   0.0000000), wk =   0.0246914
        k(   25) = (   0.1000000   0.0000000   0.0000000), wk =   0.0246914
        k(   26) = (   0.1250000   0.0000000   0.0000000), wk =   0.0246914
        k(   27) = (   0.1500000   0.0000000   0.0000000), wk =   0.0246914
        k(   28) = (   0.1750000   0.0000000   0.0000000), wk =   0.0246914
        k(   29) = (   0.2000000   0.0000000   0.0000000), wk =   0.0246914
        k(   30) = (   0.2250000   0.0000000   0.0000000), wk =   0.0246914
        k(   31) = (   0.2500000   0.0000000   0.0000000), wk =   0.0246914
        k(   32) = (   0.2750000   0.0000000   0.0000000), wk =   0.0246914
        k(   33) = (   0.3000000   0.0000000   0.0000000), wk =   0.0246914
        k(   34) = (   0.3250000   0.0000000   0.0000000), wk =   0.0246914
        k(   35) = (   0.3500000   0.0000000   0.0000000), wk =   0.0246914
        k(   36) = (   0.3750000   0.0000000   0.0000000), wk =   0.0246914
        k(   37) = (   0.4000000   0.0000000   0.0000000), wk =   0.0246914
        k(   38) = (   0.4250000   0.0000000   0.0000000), wk =   0.0246914
        k(   39) = (   0.4500000   0.0000000   0.0000000), wk =   0.0246914
        k(   40) = (   0.4750000   0.0000000   0.0000000), wk =   0.0246914
        k(   41) = (   0.5000000   0.0000000   0.0000000), wk =   0.0246914
        k(   42) = (   0.5000000   0.0250000   0.0000000), wk =   0.0246914
        k(   43) = (   0.5000000   0.0500000   0.0000000), wk =   0.0246914
        k(   44) = (   0.5000000   0.0750000   0.0000000), wk =   0.0246914
        k(   45) = (   0.5000000   0.1000000   0.0000000), wk =   0.0246914
        k(   46) = (   0.5000000   0.1250000   0.0000000), wk =   0.0246914
        k(   47) = (   0.5000000   0.1500000   0.0000000), wk =   0.0246914
        k(   48) = (   0.5000000   0.1750000   0.0000000), wk =   0.0246914
        k(   49) = (   0.5000000   0.2000000   0.0000000), wk =   0.0246914
        k(   50) = (   0.5000000   0.2250000   0.0000000), wk =   0.0246914
        k(   51) = (   0.5000000   0.2500000   0.0000000), wk =   0.0246914
        k(   52) = (   0.5000000   0.2750000   0.0000000), wk =   0.0246914
        k(   53) = (   0.5000000   0.3000000   0.0000000), wk =   0.0246914
        k(   54) = (   0.5000000   0.3250000   0.0000000), wk =   0.0246914
        k(   55) = (   0.5000000   0.3500000   0.0000000), wk =   0.0246914
        k(   56) = (   0.5000000   0.3750000   0.0000000), wk =   0.0246914
        k(   57) = (   0.5000000   0.4000000   0.0000000), wk =   0.0246914
        k(   58) = (   0.5000000   0.4250000   0.0000000), wk =   0.0246914
        k(   59) = (   0.5000000   0.4500000   0.0000000), wk =   0.0246914
        k(   60) = (   0.5000000   0.4750000   0.0000000), wk =   0.0246914
        k(   61) = (   0.5000000   0.5000000   0.0000000), wk =   0.0246914
        k(   62) = (   0.4750000   0.4750000   0.0000000), wk =   0.0246914
        k(   63) = (   0.4500000   0.4500000   0.0000000), wk =   0.0246914
        k(   64) = (   0.4250000   0.4250000   0.0000000), wk =   0.0246914
        k(   65) = (   0.4000000   0.4000000   0.0000000), wk =   0.0246914
        k(   66) = (   0.3750000   0.3750000   0.0000000), wk =   0.0246914
        k(   67) = (   0.3500000   0.3500000   0.0000000), wk =   0.0246914
        k(   68) = (   0.3250000   0.3250000   0.0000000), wk =   0.0246914
        k(   69) = (   0.3000000   0.3000000   0.0000000), wk =   0.0246914
        k(   70) = (   0.2750000   0.2750000   0.0000000), wk =   0.0246914
        k(   71) = (   0.2500000   0.2500000   0.0000000), wk =   0.0246914
        k(   72) = (   0.2250000   0.2250000   0.0000000), wk =   0.0246914
        k(   73) = (   0.2000000   0.2000000   0.0000000), wk =   0.0246914
        k(   74) = (   0.1750000   0.1750000   0.0000000), wk =   0.0246914
        k(   75) = (   0.1500000   0.1500000   0.0000000), wk =   0.0246914
        k(   76) = (   0.1250000   0.1250000   0.0000000), wk =   0.0246914
        k(   77) = (   0.1000000   0.1000000   0.0000000), wk =   0.0246914
        k(   78) = (   0.0750000   0.0750000   0.0000000), wk =   0.0246914
        k(   79) = (   0.0500000   0.0500000   0.0000000), wk =   0.0246914
        k(   80) = (   0.0250000   0.0250000   0.0000000), wk =   0.0246914
        k(   81) = (   0.0000000   0.0000000   0.0000000), wk =   0.0246914

                       cryst. coord.
        k(    1) = (   0.5000000   0.5000000   0.5000000), wk =   0.0246914
        k(    2) = (   0.4750000   0.4750000   0.4750000), wk =   0.0246914
        k(    3) = (   0.4500000   0.4500000   0.4500000), wk =   0.0246914
        k(    4) = (   0.4250000   0.4250000   0.4250000), wk =   0.0246914
        k(    5) = (   0.4000000   0.4000000   0.4000000), wk =   0.0246914
        k(    6) = (   0.3750000   0.3750000   0.3750000), wk =   0.0246914
        k(    7) = (   0.3500000   0.3500000   0.3500000), wk =   0.0246914
        k(    8) = (   0.3250000   0.3250000   0.3250000), wk =   0.0246914
        k(    9) = (   0.3000000   0.3000000   0.3000000), wk =   0.0246914
        k(   10) = (   0.2750000   0.2750000   0.2750000), wk =   0.0246914
        k(   11) = (   0.2500000   0.2500000   0.2500000), wk =   0.0246914
        k(   12) = (   0.2250000   0.2250000   0.2250000), wk =   0.0246914
        k(   13) = (   0.2000000   0.2000000   0.2000000), wk =   0.0246914
        k(   14) = (   0.1750000   0.1750000   0.1750000), wk =   0.0246914
        k(   15) = (   0.1500000   0.1500000   0.1500000), wk =   0.0246914
        k(   16) = (   0.1250000   0.1250000   0.1250000), wk =   0.0246914
        k(   17) = (   0.1000000   0.1000000   0.1000000), wk =   0.0246914
        k(   18) = (   0.0750000   0.0750000   0.0750000), wk =   0.0246914
        k(   19) = (   0.0500000   0.0500000   0.0500000), wk =   0.0246914
        k(   20) = (   0.0250000   0.0250000   0.0250000), wk =   0.0246914
        k(   21) = (   0.0000000   0.0000000   0.0000000), wk =   0.0246914
        k(   22) = (   0.0250000   0.0000000   0.0000000), wk =   0.0246914
        k(   23) = (   0.0500000   0.0000000   0.0000000), wk =   0.0246914
        k(   24) = (   0.0750000   0.0000000   0.0000000), wk =   0.0246914
        k(   25) = (   0.1000000   0.0000000   0.0000000), wk =   0.0246914
        k(   26) = (   0.1250000   0.0000000   0.0000000), wk =   0.0246914
        k(   27) = (   0.1500000   0.0000000   0.0000000), wk =   0.0246914
        k(   28) = (   0.1750000   0.0000000   0.0000000), wk =   0.0246914
        k(   29) = (   0.2000000   0.0000000   0.0000000), wk =   0.0246914
        k(   30) = (   0.2250000   0.0000000   0.0000000), wk =   0.0246914
        k(   31) = (   0.2500000   0.0000000   0.0000000), wk =   0.0246914
        k(   32) = (   0.2750000   0.0000000   0.0000000), wk =   0.0246914
        k(   33) = (   0.3000000   0.0000000   0.0000000), wk =   0.0246914
        k(   34) = (   0.3250000   0.0000000   0.0000000), wk =   0.0246914
        k(   35) = (   0.3500000   0.0000000   0.0000000), wk =   0.0246914
        k(   36) = (   0.3750000   0.0000000   0.0000000), wk =   0.0246914
        k(   37) = (   0.4000000   0.0000000   0.0000000), wk =   0.0246914
        k(   38) = (   0.4250000   0.0000000   0.0000000), wk =   0.0246914
        k(   39) = (   0.4500000   0.0000000   0.0000000), wk =   0.0246914
        k(   40) = (   0.4750000   0.0000000   0.0000000), wk =   0.0246914
        k(   41) = (   0.5000000   0.0000000   0.0000000), wk =   0.0246914
        k(   42) = (   0.5000000   0.0250000   0.0000000), wk =   0.0246914
        k(   43) = (   0.5000000   0.0500000   0.0000000), wk =   0.0246914
        k(   44) = (   0.5000000   0.0750000   0.0000000), wk =   0.0246914
        k(   45) = (   0.5000000   0.1000000   0.0000000), wk =   0.0246914
        k(   46) = (   0.5000000   0.1250000   0.0000000), wk =   0.0246914
        k(   47) = (   0.5000000   0.1500000   0.0000000), wk =   0.0246914
        k(   48) = (   0.5000000   0.1750000   0.0000000), wk =   0.0246914
        k(   49) = (   0.5000000   0.2000000   0.0000000), wk =   0.0246914
        k(   50) = (   0.5000000   0.2250000   0.0000000), wk =   0.0246914
        k(   51) = (   0.5000000   0.2500000   0.0000000), wk =   0.0246914
        k(   52) = (   0.5000000   0.2750000   0.0000000), wk =   0.0246914
        k(   53) = (   0.5000000   0.3000000   0.0000000), wk =   0.0246914
        k(   54) = (   0.5000000   0.3250000   0.0000000), wk =   0.0246914
        k(   55) = (   0.5000000   0.3500000   0.0000000), wk =   0.0246914
        k(   56) = (   0.5000000   0.3750000   0.0000000), wk =   0.0246914
        k(   57) = (   0.5000000   0.4000000   0.0000000), wk =   0.0246914
        k(   58) = (   0.5000000   0.4250000   0.0000000), wk =   0.0246914
        k(   59) = (   0.5000000   0.4500000   0.0000000), wk =   0.0246914
        k(   60) = (   0.5000000   0.4750000   0.0000000), wk =   0.0246914
        k(   61) = (   0.5000000   0.5000000   0.0000000), wk =   0.0246914
        k(   62) = (   0.4750000   0.4750000   0.0000000), wk =   0.0246914
        k(   63) = (   0.4500000   0.4500000   0.0000000), wk =   0.0246914
        k(   64) = (   0.4250000   0.4250000   0.0000000), wk =   0.0246914
        k(   65) = (   0.4000000   0.4000000   0.0000000), wk =   0.0246914
        k(   66) = (   0.3750000   0.3750000   0.0000000), wk =   0.0246914
        k(   67) = (   0.3500000   0.3500000   0.0000000), wk =   0.0246914
        k(   68) = (   0.3250000   0.3250000   0.0000000), wk =   0.0246914
        k(   69) = (   0.3000000   0.3000000   0.0000000), wk =   0.0246914
        k(   70) = (   0.2750000   0.2750000   0.0000000), wk =   0.0246914
        k(   71) = (   0.2500000   0.2500000   0.0000000), wk =   0.0246914
        k(   72) = (   0.2250000   0.2250000   0.0000000), wk =   0.0246914
        k(   73) = (   0.2000000   0.2000000   0.0000000), wk =   0.0246914
        k(   74) = (   0.1750000   0.1750000   0.0000000), wk =   0.0246914
        k(   75) = (   0.1500000   0.1500000   0.0000000), wk =   0.0246914
        k(   76) = (   0.1250000   0.1250000   0.0000000), wk =   0.0246914
        k(   77) = (   0.1000000   0.1000000   0.0000000), wk =   0.0246914
        k(   78) = (   0.0750000   0.0750000   0.0000000), wk =   0.0246914
        k(   79) = (   0.0500000   0.0500000   0.0000000), wk =   0.0246914
        k(   80) = (   0.0250000   0.0250000   0.0000000), wk =   0.0246914
        k(   81) = (   0.0000000   0.0000000   0.0000000), wk =   0.0246914

     Dense  grid:   197909 G-vectors     FFT dimensions: (  80,  80,  80)

     Smooth grid:    85735 G-vectors     FFT dimensions: (  60,  60,  60)

     Dynamical RAM for                 wfc:       1.37 MB

     Dynamical RAM for     wfc (w. buffer):     112.56 MB

     Dynamical RAM for           str. fact:       0.60 MB

     Dynamical RAM for           local pot:       0.00 MB

     Dynamical RAM for          nlocal pot:       3.53 MB

     Dynamical RAM for                qrad:       3.57 MB

     Dynamical RAM for          rho,v,vnew:       2.08 MB

     Dynamical RAM for           G-vectors:       1.20 MB

     Dynamical RAM for          h,s,v(r/c):       1.29 MB

     Dynamical RAM for          <psi|beta>:       0.28 MB

     Dynamical RAM for                 psi:       2.75 MB

     Dynamical RAM for                hpsi:       2.75 MB

     Dynamical RAM for                spsi:       2.75 MB

     Dynamical RAM for      wfcinit/wfcrot:       2.91 MB

     Dynamical RAM for           addusdens:      58.59 MB

     Estimated static dynamical RAM per process >     126.41 MB

     Estimated max dynamical RAM per process >     184.99 MB

     Estimated total dynamical RAM >       1.81 GB

     The potential is recalculated from file :
     ./work/pwscf.save/charge-density

     Starting wfcs are   72 randomized atomic wfcs +   12 random wfcs
     Checking if some PAW data can be deallocated... 
       PAW data deallocated on    2 nodes for type:  1
       PAW data deallocated on    8 nodes for type:  2

     Band Structure Calculation
     Davidson diagonalization with overlap

     Computing kpt #:     1  of    81
     total cpu time spent up to now is        2.9 secs

     Computing kpt #:     2  of    81
     total cpu time spent up to now is        4.0 secs

     Computing kpt #:     3  of    81
     total cpu time spent up to now is        5.3 secs

     Computing kpt #:     4  of    81
     total cpu time spent up to now is        6.8 secs

     Computing kpt #:     5  of    81
     total cpu time spent up to now is        8.2 secs

     Computing kpt #:     6  of    81
     total cpu time spent up to now is        9.7 secs

     Computing kpt #:     7  of    81
     total cpu time spent up to now is       11.1 secs

     Computing kpt #:     8  of    81
     total cpu time spent up to now is       12.5 secs

     Computing kpt #:     9  of    81
     total cpu time spent up to now is       13.8 secs

     Computing kpt #:    10  of    81
     total cpu time spent up to now is       15.2 secs

     Computing kpt #:    11  of    81
     total cpu time spent up to now is       16.6 secs

     Computing kpt #:    12  of    81
     total cpu time spent up to now is       17.9 secs

     Computing kpt #:    13  of    81
     total cpu time spent up to now is       19.4 secs

     Computing kpt #:    14  of    81
     total cpu time spent up to now is       20.8 secs

     Computing kpt #:    15  of    81
     total cpu time spent up to now is       22.5 secs

     Computing kpt #:    16  of    81
     total cpu time spent up to now is       24.4 secs

     Computing kpt #:    17  of    81
     total cpu time spent up to now is       26.1 secs

     Computing kpt #:    18  of    81
     total cpu time spent up to now is       27.8 secs

     Computing kpt #:    19  of    81
     total cpu time spent up to now is       29.5 secs

     Computing kpt #:    20  of    81
     total cpu time spent up to now is       32.2 secs

     Computing kpt #:    21  of    81
     total cpu time spent up to now is       33.8 secs

     Computing kpt #:    22  of    81
     c_bands:  1 eigenvalues not converged
     total cpu time spent up to now is       36.7 secs

     Computing kpt #:    23  of    81
     total cpu time spent up to now is       39.2 secs

     Computing kpt #:    24  of    81
     total cpu time spent up to now is       40.9 secs

     Computing kpt #:    25  of    81
     total cpu time spent up to now is       42.7 secs

     Computing kpt #:    26  of    81
     total cpu time spent up to now is       44.3 secs

     Computing kpt #:    27  of    81
     total cpu time spent up to now is       45.7 secs

     Computing kpt #:    28  of    81
     total cpu time spent up to now is       47.1 secs

     Computing kpt #:    29  of    81
     total cpu time spent up to now is       48.6 secs

     Computing kpt #:    30  of    81
     total cpu time spent up to now is       50.0 secs

     Computing kpt #:    31  of    81
     total cpu time spent up to now is       51.4 secs

     Computing kpt #:    32  of    81
     total cpu time spent up to now is       52.8 secs

     Computing kpt #:    33  of    81
     total cpu time spent up to now is       54.2 secs

     Computing kpt #:    34  of    81
     total cpu time spent up to now is       55.6 secs

     Computing kpt #:    35  of    81
     total cpu time spent up to now is       57.4 secs

     Computing kpt #:    36  of    81
     total cpu time spent up to now is       58.8 secs

     Computing kpt #:    37  of    81
     total cpu time spent up to now is       60.2 secs

     Computing kpt #:    38  of    81
     total cpu time spent up to now is       61.5 secs

     Computing kpt #:    39  of    81
     total cpu time spent up to now is       62.9 secs

     Computing kpt #:    40  of    81
     total cpu time spent up to now is       64.2 secs

     Computing kpt #:    41  of    81
     total cpu time spent up to now is       65.5 secs

     Computing kpt #:    42  of    81
     total cpu time spent up to now is       66.9 secs

     Computing kpt #:    43  of    81
     total cpu time spent up to now is       68.2 secs

     Computing kpt #:    44  of    81
     total cpu time spent up to now is       69.6 secs

     Computing kpt #:    45  of    81
     total cpu time spent up to now is       70.9 secs

     Computing kpt #:    46  of    81
     total cpu time spent up to now is       72.2 secs

     Computing kpt #:    47  of    81
     total cpu time spent up to now is       73.5 secs

     Computing kpt #:    48  of    81
     total cpu time spent up to now is       74.9 secs

     Computing kpt #:    49  of    81
     total cpu time spent up to now is       76.2 secs

     Computing kpt #:    50  of    81
     total cpu time spent up to now is       77.6 secs

     Computing kpt #:    51  of    81
     total cpu time spent up to now is       78.9 secs

     Computing kpt #:    52  of    81
     total cpu time spent up to now is       80.3 secs

     Computing kpt #:    53  of    81
     total cpu time spent up to now is       81.6 secs

     Computing kpt #:    54  of    81
     total cpu time spent up to now is       82.9 secs

     Computing kpt #:    55  of    81
     total cpu time spent up to now is       84.1 secs

     Computing kpt #:    56  of    81
     total cpu time spent up to now is       85.4 secs

     Computing kpt #:    57  of    81
     total cpu time spent up to now is       86.7 secs

     Computing kpt #:    58  of    81
     total cpu time spent up to now is       87.8 secs

     Computing kpt #:    59  of    81
     total cpu time spent up to now is       88.8 secs

     Computing kpt #:    60  of    81
     total cpu time spent up to now is       89.9 secs

     Computing kpt #:    61  of    81
     total cpu time spent up to now is       91.0 secs

     Computing kpt #:    62  of    81
     total cpu time spent up to now is       92.1 secs

     Computing kpt #:    63  of    81
     total cpu time spent up to now is       93.2 secs

     Computing kpt #:    64  of    81
     total cpu time spent up to now is       94.4 secs

     Computing kpt #:    65  of    81
     total cpu time spent up to now is       95.7 secs

     Computing kpt #:    66  of    81
     total cpu time spent up to now is       97.0 secs

     Computing kpt #:    67  of    81
     total cpu time spent up to now is       98.5 secs

     Computing kpt #:    68  of    81
     total cpu time spent up to now is      100.1 secs

     Computing kpt #:    69  of    81
     total cpu time spent up to now is      101.5 secs

     Computing kpt #:    70  of    81
     total cpu time spent up to now is      103.2 secs

     Computing kpt #:    71  of    81
     total cpu time spent up to now is      104.8 secs

     Computing kpt #:    72  of    81
     total cpu time spent up to now is      106.3 secs

     Computing kpt #:    73  of    81
     total cpu time spent up to now is      107.8 secs

     Computing kpt #:    74  of    81
     total cpu time spent up to now is      109.3 secs

     Computing kpt #:    75  of    81
     total cpu time spent up to now is      110.9 secs

     Computing kpt #:    76  of    81
     total cpu time spent up to now is      112.5 secs

     Computing kpt #:    77  of    81
     total cpu time spent up to now is      114.0 secs

     Computing kpt #:    78  of    81
     total cpu time spent up to now is      115.8 secs

     Computing kpt #:    79  of    81
     total cpu time spent up to now is      117.5 secs

     Computing kpt #:    80  of    81
     total cpu time spent up to now is      120.2 secs

     Computing kpt #:    81  of    81
     total cpu time spent up to now is      121.7 secs

     ethr =  7.86E-07,  avg # of iterations = 34.1

     total cpu time spent up to now is      121.7 secs

     End of band structure calculation

          k = 0.5000 0.5000 0.5000 ( 10768 PWs)   bands (ev):

   -73.3551 -73.3551 -73.3551 -73.3551 -39.5388 -39.5388 -39.5388 -39.5388
   -39.5362 -39.5362 -39.5362 -39.5362 -39.2876 -39.2876 -39.2876 -39.2876
    -2.3727  -2.3727  -2.3727  -2.3727   0.2208   0.2208   0.2208   0.2208
     6.3708   6.3708   6.3708   6.3708   7.4664   7.4664   7.4664   7.4664
     8.3376   8.3376   8.3376   8.3376  10.5556  10.5556  10.5556  10.5556
    10.8715  10.8715  10.8715  10.8715  11.6916  11.6916  11.6916  11.6916
    11.8548  11.8548  11.8548  11.8548  12.5162  12.5162  12.5162  12.5162
    14.3598  14.3598  14.3598  14.3598  15.3114  15.3114  15.3114  15.3114
    16.2093  16.2093  16.2093  16.2093  19.9642  19.9642  19.9642  19.9642
    20.9329  20.9329  20.9329  20.9329  21.4400  21.4400  21.4400  21.4400
    21.8799  21.8799  21.8799  21.8799

          k = 0.4750 0.4750 0.4750 ( 10678 PWs)   bands (ev):

   -73.3550 -73.3550 -73.3550 -73.3550 -39.5386 -39.5385 -39.5385 -39.5385
   -39.5360 -39.5360 -39.5359 -39.5359 -39.2874 -39.2873 -39.2873 -39.2873
    -2.3927  -2.3720  -2.3715  -2.3715   0.2256   0.2256   0.2308   0.2398
     6.3193   6.3642   6.3642   6.3713   7.4409   7.4409   7.4675   7.5317
     8.3357   8.3357   8.3657   8.3657  10.5226  10.5226  10.5458  10.5458
    10.8102  10.8518  10.8518  10.8580  11.7035  11.7120  11.7120  11.7406
    11.8649  11.8649  11.8788  11.8788  12.5148  12.5221  12.5221  12.5227
    14.3585  14.3716  14.3719  14.3719  15.3041  15.3041  15.3164  15.3164
    16.1908  16.1960  16.2083  16.2083  19.8875  19.9224  19.9224  19.9902
    20.9112  20.9563  20.9563  21.0200  21.3928  21.3928  21.4241  21.4241
    21.8935  21.8935  21.9305  21.9305

          k = 0.4500 0.4500 0.4500 ( 10711 PWs)   bands (ev):

   -73.3550 -73.3550 -73.3550 -73.3550 -39.5387 -39.5386 -39.5386 -39.5386
   -39.5361 -39.5361 -39.5360 -39.5360 -39.2875 -39.2874 -39.2874 -39.2874
    -2.4501  -2.3697  -2.3677  -2.3677   0.2398   0.2398   0.2604   0.2938
     6.1941   6.3437   6.3437   6.3733   7.3774   7.3774   7.4703   7.6982
     8.3299   8.3299   8.4357   8.4357  10.4318  10.4318  10.5127  10.5127
    10.6604  10.8108  10.8108  10.8202  11.7360  11.7560  11.7560  11.8527
    11.8947  11.8947  11.9456  11.9457  12.5101  12.5390  12.5390  12.5421
    14.3542  14.4059  14.4068  14.4068  15.2815  15.2815  15.3307  15.3307
    16.1363  16.1570  16.2054  16.2054  19.7231  19.8184  19.8184  20.0672
    20.8494  20.9989  20.9989  21.2098  21.2760  21.2760  21.4045  21.4045
    21.9252  21.9252  22.0538  22.0538

          k = 0.4250 0.4250 0.4250 ( 10729 PWs)   bands (ev):

   -73.3550 -73.3550 -73.3550 -73.3550 -39.5387 -39.5386 -39.5386 -39.5386
   -39.5362 -39.5362 -39.5360 -39.5360 -39.2875 -39.2875 -39.2874 -39.2874
    -2.5388  -2.3656  -2.3612  -2.3612   0.2626   0.2626   0.3089   0.3750
     6.0413   6.3083   6.3083   6.3779   7.3007   7.3007   7.4737   7.9198
     8.3206   8.3206   8.5195   8.5195  10.3041  10.3042  10.4515  10.4515
    10.4702  10.7632  10.7773  10.7773  11.7834  11.8019  11.8019  11.9410
    11.9410  11.9790  12.0402  12.0402  12.5026  12.5655  12.5655  12.5743
    14.3476  14.4610  14.4632  14.4632  15.2433  15.2433  15.3543  15.3543
    16.0501  16.0955  16.2012  16.2013  19.5530  19.6907  19.6907  20.1917
    20.7566  21.0051  21.0051  21.1393  21.1393  21.4073  21.4191  21.4191
    21.9674  21.9674  22.2133  22.2133

          k = 0.4000 0.4000 0.4000 ( 10699 PWs)   bands (ev):

   -73.3551 -73.3550 -73.3550 -73.3550 -39.5386 -39.5385 -39.5384 -39.5384
   -39.5361 -39.5361 -39.5360 -39.5360 -39.2874 -39.2874 -39.2874 -39.2874
    -2.6506  -2.3593  -2.3520  -2.3520   0.2928   0.2928   0.3755   0.4731
     5.8895   6.2573   6.2573   6.3869   7.2298   7.2298   7.4758   8.1675
     8.3082   8.3082   8.5917   8.5918  10.1641  10.1641  10.2667  10.3679
    10.3679  10.6925  10.7614  10.7614  11.8392  11.8463  11.8463  11.9945
    11.9946  12.0923  12.1425  12.1425  12.4934  12.5983  12.5983  12.6173
    14.3394  14.5335  14.5385  14.5385  15.1888  15.1889  15.3869  15.3869
    15.9387  16.0181  16.1971  16.1971  19.4142  19.5686  19.5686  20.3585
    20.6436  20.9135  20.9135  21.0650  21.0650  21.4631  21.4631  21.5621
    22.0251  22.0251  22.3908  22.3908

          k = 0.3750 0.3750 0.3750 ( 10705 PWs)   bands (ev):

   -73.3550 -73.3550 -73.3550 -73.3550 -39.5386 -39.5384 -39.5384 -39.5382
   -39.5363 -39.5363 -39.5361 -39.5361 -39.2875 -39.2874 -39.2874 -39.2874
    -2.7778  -2.3504  -2.3398  -2.3398   0.3287   0.3287   0.4585   0.5770
     5.7544   6.1928   6.1928   6.4024   7.1745   7.1745   7.4742   8.2921
     8.2921   8.4245   8.6336   8.6336  10.0294  10.0294  10.0638  10.2766
    10.2766  10.6117  10.7591  10.7591  11.8916  11.8916  11.8984  12.0466
    12.0466  12.1777  12.2389  12.2390  12.4865  12.6328  12.6328  12.6670
    14.3298  14.6163  14.6286  14.6286  15.1181  15.1181  15.4281  15.4281
    15.8101  15.9361  16.1951  16.1951  19.3201  19.4694  19.4694  20.5075
    20.5742  20.7786  20.7786  21.0415  21.0415  21.5055  21.5055  21.6572
    22.1059  22.1059  22.5798  22.5798

          k = 0.3500 0.3500 0.3500 ( 10708 PWs)   bands (ev):

   -73.3551 -73.3550 -73.3550 -73.3550 -39.5386 -39.5383 -39.5383 -39.5381
   -39.5365 -39.5365 -39.5361 -39.5361 -39.2875 -39.2874 -39.2874 -39.2874
    -2.9137  -2.3384  -2.3244  -2.3244   0.3685   0.3685   0.5561   0.6768
     5.6450   6.1200   6.1200   6.4273   7.1370   7.1370   7.4664   8.2701
     8.2701   8.6369   8.6369   8.6791   9.8710   9.9071   9.9071  10.1923
    10.1923  10.5224  10.7651  10.7651  11.9393  11.9393  11.9573  12.0929
    12.0930  12.2240  12.3225  12.3226  12.4918  12.6629  12.6629  12.7170
    14.3192  14.6991  14.7287  14.7288  15.0333  15.0333  15.4776  15.4777
    15.6713  15.8677  16.1981  16.1981  19.2724  19.4016  19.4016  20.3870
    20.6663  20.6664  20.8005  21.0358  21.0359  21.5281  21.5281  21.6972
    22.2102  22.2103  22.7785  22.8298

          k = 0.3250 0.3250 0.3250 ( 10696 PWs)   bands (ev):

   -73.3551 -73.3550 -73.3550 -73.3550 -39.5386 -39.5382 -39.5382 -39.5379
   -39.5366 -39.5366 -39.5361 -39.5361 -39.2875 -39.2874 -39.2873 -39.2873
    -3.0530  -2.3229  -2.3059  -2.3059   0.4099   0.4099   0.6656   0.7646
     5.5666   6.0459   6.0459   6.4646   7.1148   7.1148   7.4501   8.2362
     8.2362   8.6093   8.6094   8.9193   9.6970   9.7933   9.7933  10.1240
    10.1240  10.4250  10.7750  10.7750  11.9887  11.9887  12.0142  12.1325
    12.1326  12.2258  12.3905  12.3905  12.5174  12.6831  12.6831  12.7617
    14.3071  14.7692  14.8277  14.8278  14.9464  14.9465  15.5272  15.5350
    15.5350  15.8353  16.2089  16.2089  19.2658  19.3677  19.3677  20.2624
    20.5949  20.5950  21.0488  21.0488  21.0548  21.5281  21.5281  21.6953
    22.3291  22.3291  22.7233  22.9863

          k = 0.3000 0.3000 0.3000 ( 10681 PWs)   bands (ev):

   -73.3551 -73.3550 -73.3550 -73.3550 -39.5386 -39.5381 -39.5381 -39.5377
   -39.5367 -39.5367 -39.5360 -39.5360 -39.2875 -39.2873 -39.2873 -39.2873
    -3.1915  -2.3037  -2.2841  -2.2841   0.4504   0.4504   0.7802   0.8384
     5.5220   5.9781   5.9781   6.5174   7.1037   7.1037   7.4235   8.1803
     8.1803   8.5736   8.5736   9.1243   9.5578   9.6817   9.6817  10.0700
    10.0700  10.3192  10.7849  10.7849  12.0384  12.0384  12.0685  12.1658
    12.1659  12.1941  12.4420  12.4420  12.5563  12.6892  12.6892  12.7980
    14.2916  14.8115  14.8115  14.8186  14.9769  14.9769  15.3823  15.5987
    15.5987  15.8542  16.2288  16.2288  19.2898  19.3670  19.3670  20.1489
    20.5711  20.5711  21.0815  21.0815  21.3177  21.5091  21.5091  21.6665
    22.4486  22.4486  22.6068  23.2001

          k = 0.2750 0.2750 0.2750 ( 10714 PWs)   bands (ev):

   -73.3551 -73.3550 -73.3550 -73.3550 -39.5387 -39.5382 -39.5382 -39.5375
   -39.5369 -39.5369 -39.5361 -39.5361 -39.2876 -39.2874 -39.2874 -39.2874
    -3.3261  -2.2808  -2.2593  -2.2593   0.4879   0.4879   0.8576   0.9341
     5.5109   5.9230   5.9230   6.5889   7.0996   7.0996   7.3855   8.0956
     8.0957   8.5529   8.5529   9.2261   9.5116   9.5701   9.5701  10.0199
    10.0199  10.2070  10.7903  10.7903  12.0861  12.0861  12.1191  12.1476
    12.1933  12.1934  12.4773  12.4773  12.5953  12.6799  12.6799  12.8256
    14.2698  14.7163  14.7164  14.8496  15.0964  15.0964  15.2450  15.6664
    15.6664  15.9215  16.2575  16.2575  19.3282  19.3983  19.3983  20.0599
    20.5950  20.5950  21.1312  21.1312  21.4761  21.4761  21.5545  21.6422
    22.5037  22.5533  22.5533  23.4112

          k = 0.2500 0.2500 0.2500 ( 10723 PWs)   bands (ev):

   -73.3552 -73.3550 -73.3550 -73.3550 -39.5388 -39.5382 -39.5382 -39.5374
   -39.5370 -39.5369 -39.5362 -39.5362 -39.2876 -39.2874 -39.2874 -39.2874
    -3.4544  -2.2542  -2.2318  -2.2318   0.5204   0.5204   0.8812   1.0644
     5.5305   5.8854   5.8854   6.6817   7.0989   7.0989   7.3366   7.9884
     7.9884   8.5556   8.5556   9.1786   9.4601   9.4601   9.5841   9.9623
     9.9623  10.1014  10.7866  10.7866  12.0949  12.1298  12.1298  12.1724
    12.2149  12.2149  12.4974  12.4974  12.6258  12.6580  12.6580  12.8457
    14.2389  14.6267  14.6268  14.8643  15.1343  15.2300  15.2300  15.7361
    15.7361  16.0186  16.2922  16.2922  19.3599  19.4617  19.4617  20.0166
    20.6616  20.6616  21.1845  21.1845  21.4399  21.4399  21.5641  21.8106
    22.4399  22.6289  22.6289  23.6023

          k = 0.2250 0.2250 0.2250 ( 10729 PWs)   bands (ev):

   -73.3552 -73.3550 -73.3550 -73.3550 -39.5388 -39.5382 -39.5382 -39.5372
   -39.5370 -39.5370 -39.5363 -39.5362 -39.2877 -39.2874 -39.2874 -39.2874
    -3.5744  -2.2244  -2.2020  -2.2019   0.5461   0.5461   0.8772   1.2018
     5.5762   5.8686   5.8686   6.7971   7.0986   7.0987   7.2790   7.8724
     7.8724   8.5773   8.5774   9.0937   9.3544   9.3545   9.6139   9.8892
     9.8892  10.0456  10.7704  10.7704  12.0519  12.1656  12.1656  12.2222
    12.2295  12.2295  12.5037  12.5037  12.6309  12.6309  12.6434  12.8588
    14.1968  14.5532  14.5533  14.8354  15.0959  15.3731  15.3732  15.8065
    15.8065  16.1228  16.3292  16.3292  19.3694  19.5576  19.5577  20.0388
    20.7610  20.7610  21.2033  21.2033  21.4338  21.4338  21.5373  21.9550
    22.4389  22.6668  22.6668  23.7521

          k = 0.2000 0.2000 0.2000 ( 10723 PWs)   bands (ev):

   -73.3552 -73.3550 -73.3550 -73.3550 -39.5388 -39.5383 -39.5383 -39.5371
   -39.5370 -39.5368 -39.5363 -39.5362 -39.2877 -39.2874 -39.2874 -39.2873
    -3.6847  -2.1920  -2.1705  -2.1705   0.5643   0.5643   0.8525   1.3396
     5.6424   5.8738   5.8738   6.9335   7.0967   7.0967   7.2173   7.7608
     7.7608   8.6096   8.6097   9.0102   9.2568   9.2568   9.5275   9.7983
     9.7983  10.0721  10.7400  10.7400  12.0190  12.1806  12.1806  12.2431
    12.2431  12.2728  12.5010  12.5010  12.6074  12.6074  12.6471  12.8649
    14.1431  14.4996  14.4997  14.7553  15.1474  15.5221  15.5221  15.8785
    15.8785  16.2154  16.3646  16.3647  19.3653  19.6857  19.6857  20.1253
    20.8702  20.8702  21.1668  21.1668  21.4836  21.4836  21.5368  22.0110
    22.4796  22.6720  22.6720  23.8537

          k = 0.1750 0.1750 0.1750 ( 10729 PWs)   bands (ev):

   -73.3552 -73.3550 -73.3550 -73.3550 -39.5388 -39.5383 -39.5383 -39.5371
   -39.5370 -39.5368 -39.5363 -39.5363 -39.2877 -39.2874 -39.2874 -39.2873
    -3.7842  -2.1579  -2.1384  -2.1384   0.5747   0.5747   0.8127   1.4738
     5.7236   5.9004   5.9004   7.0718   7.0909   7.0909   7.1717   7.6641
     7.6641   8.6396   8.6396   8.9246   9.1734   9.1734   9.3806   9.6926
     9.6926  10.1319  10.6956  10.6956  11.9946  12.1562  12.1562  12.2685
    12.2686  12.3238  12.4988  12.4989  12.5911  12.5911  12.6385  12.8642
    14.0770  14.4658  14.4659  14.6655  15.2503  15.6682  15.6683  15.9557
    15.9557  16.2845  16.3971  16.3971  19.3711  19.8416  19.8416  20.2598
    20.9038  20.9038  21.1804  21.1804  21.5545  21.5545  21.5706  22.0178
    22.4791  22.6610  22.6610  23.9126

          k = 0.1500 0.1500 0.1500 ( 10729 PWs)   bands (ev):

   -73.3553 -73.3550 -73.3550 -73.3550 -39.5388 -39.5384 -39.5384 -39.5370
   -39.5369 -39.5367 -39.5363 -39.5363 -39.2878 -39.2874 -39.2874 -39.2873
    -3.8720  -2.1233  -2.1067  -2.1067   0.5781   0.5781   0.7634   1.6005
     5.8150   5.9457   5.9457   7.0702   7.0792   7.0792   7.2831   7.5912
     7.5912   8.6456   8.6457   8.8170   9.1170   9.1170   9.2379   9.5807
     9.5808  10.1880  10.6391  10.6391  11.9732  12.1023  12.1024  12.2993
    12.2993  12.3743  12.5035  12.5036  12.5799  12.5800  12.6212  12.8585
    13.9961  14.4486  14.4487  14.5882  15.3817  15.7971  15.7971  16.0440
    16.0440  16.3263  16.4292  16.4293  19.4026  20.0107  20.0107  20.4299
    20.8186  20.8187  21.3119  21.3119  21.6210  21.6210  21.6383  22.0043
    22.3894  22.6495  22.6495  23.9271

          k = 0.1250 0.1250 0.1250 ( 10738 PWs)   bands (ev):

   -73.3553 -73.3550 -73.3550 -73.3550 -39.5389 -39.5385 -39.5385 -39.5370
   -39.5370 -39.5366 -39.5363 -39.5363 -39.2878 -39.2874 -39.2874 -39.2873
    -3.9473  -2.0897  -2.0765  -2.0765   0.5757   0.5757   0.7103   1.7160
     5.9118   6.0047   6.0047   7.0207   7.0605   7.0605   7.4558   7.5496
     7.5496   8.6025   8.6025   8.6662   9.1008   9.1009   9.1402   9.4774
     9.4774  10.2310  10.5726  10.5726  11.9492  12.0354  12.0354  12.3293
    12.3293  12.4224  12.5138  12.5138  12.5717  12.5717  12.6003  12.8504
    13.8992  14.4437  14.4438  14.5316  15.5288  15.8960  15.8960  16.1393
    16.1393  16.3437  16.4723  16.4723  19.4617  20.1468  20.1468  20.6296
    20.7444  20.7444  21.4681  21.4681  21.6855  21.6855  21.7274  21.9643
    22.2479  22.6398  22.6398  23.8932

          k = 0.1000 0.1000 0.1000 ( 10749 PWs)   bands (ev):

   -73.3553 -73.3550 -73.3550 -73.3550 -39.5389 -39.5387 -39.5387 -39.5370
   -39.5370 -39.5364 -39.5363 -39.5363 -39.2879 -39.2874 -39.2874 -39.2873
    -4.0096  -2.0587  -2.0493  -2.0493   0.5695   0.5695   0.6586   1.8166
     6.0087   6.0705   6.0705   6.9812   7.0363   7.0363   7.5440   7.5440
     7.6255   8.4812   8.5044   8.5044   9.0914   9.1134   9.1134   9.4030
     9.4031  10.2604  10.4995  10.4995  11.9199  11.9680  11.9680  12.3562
    12.3562  12.4654  12.5258  12.5259  12.5656  12.5656  12.5815  12.8420
    13.7910  14.4464  14.4465  14.4963  15.6806  15.9676  15.9676  16.2132
    16.2132  16.3424  16.5449  16.5449  19.5416  20.1565  20.1565  20.8081
    20.8081  20.8544  21.5768  21.5768  21.7431  21.7841  21.7841  21.9277
    22.1543  22.6183  22.6183  23.8230

          k = 0.0750 0.0750 0.0750 ( 10761 PWs)   bands (ev):

   -73.3553 -73.3550 -73.3550 -73.3550 -39.5389 -39.5388 -39.5387 -39.5370
   -39.5370 -39.5365 -39.5364 -39.5363 -39.2879 -39.2874 -39.2874 -39.2874
    -4.0584  -2.0321  -2.0263  -2.0263   0.5616   0.5616   0.6130   1.8988
     6.0982   6.1343   6.1343   6.9589   7.0108   7.0108   7.5758   7.5758
     7.7760   8.2912   8.3674   8.3675   9.0740   9.1194   9.1194   9.3796
     9.3797  10.2775  10.4246  10.4246  11.8870  11.9088  11.9088  12.3786
    12.3786  12.5011  12.5368  12.5368  12.5616  12.5616  12.5688  12.8349
    13.6826  14.4526  14.4527  14.4775  15.8261  16.0214  16.0214  16.2469
    16.2469  16.3274  16.6475  16.6476  19.6321  20.0547  20.0547  21.0089
    21.0089  21.0950  21.5652  21.6178  21.6178  21.9190  21.9190  22.0037
    22.1449  22.5647  22.5648  23.7473

          k = 0.0500 0.0500 0.0500 ( 10767 PWs)   bands (ev):

   -73.3554 -73.3550 -73.3550 -73.3550 -39.5389 -39.5388 -39.5388 -39.5371
   -39.5370 -39.5364 -39.5364 -39.5363 -39.2880 -39.2874 -39.2874 -39.2874
    -4.0936  -2.0116  -2.0088  -2.0088   0.5541   0.5541   0.5774   1.9599
     6.1709   6.1874   6.1874   6.9555   6.9893   6.9893   7.6434   7.6434
     7.8933   8.1241   8.2109   8.2109   9.0734   9.1052   9.1052   9.4028
     9.4029  10.2852  10.3562  10.3562  11.8560  11.8635  11.8635  12.3952
    12.3952  12.5275  12.5443  12.5444  12.5601  12.5601  12.5626  12.8295
    13.5892  14.4592  14.4593  14.4693  15.9550  16.0624  16.0624  16.2529
    16.2530  16.3014  16.7514  16.7514  19.7208  19.9356  19.9356  21.2606
    21.2606  21.3319  21.3675  21.6308  21.6308  22.0215  22.0229  22.0229
    22.2295  22.4757  22.4757  23.6955

          k = 0.0250 0.0250 0.0250 ( 10797 PWs)   bands (ev):

   -73.3554 -73.3550 -73.3550 -73.3550 -39.5390 -39.5389 -39.5389 -39.5372
   -39.5371 -39.5364 -39.5364 -39.5363 -39.2881 -39.2875 -39.2875 -39.2875
    -4.1147  -1.9986  -1.9979  -1.9979   0.5488   0.5488   0.5547   1.9974
     6.2181   6.2222   6.2222   6.9644   6.9753   6.9753   7.7414   7.7414
     7.9599   8.0136   8.0539   8.0539   9.0788   9.0884   9.0885   9.4366
     9.4366  10.2871  10.3060  10.3060  11.8337  11.8353  11.8353  12.4053
    12.4053  12.5433  12.5476  12.5476  12.5608  12.5609  12.5613  12.8261
    13.5256  14.4641  14.4642  14.4665  16.0554  16.0903  16.0903  16.2482
    16.2483  16.2672  16.8266  16.8267  19.7897  19.8483  19.8483  21.2216
    21.5081  21.5081  21.5302  21.6368  21.6368  21.9855  22.0231  22.0231
    22.3363  22.4010  22.4010  23.6750

          k = 0.0000 0.0000 0.0000 ( 10827 PWs)   bands (ev):

   -73.3554 -73.3550 -73.3550 -73.3550 -39.5390 -39.5390 -39.5389 -39.5372
   -39.5371 -39.5366 -39.5366 -39.5365 -39.2881 -39.2876 -39.2876 -39.2876
    -4.1218  -1.9942  -1.9942  -1.9942   0.5470   0.5470   0.5470   2.0101
     6.2343   6.2343   6.2343   6.9704   6.9704   6.9704   7.8253   7.8253
     7.9494   7.9494   7.9494   8.0060   9.0818   9.0818   9.0818   9.4513
     9.4513  10.2872  10.2872  10.2872  11.8257  11.8257  11.8257  12.4087
    12.4087  12.5482  12.5483  12.5483  12.5616  12.5616  12.5617  12.8250
    13.5030  14.4657  14.4658  14.4658  16.1007  16.1007  16.1007  16.2447
    16.2447  16.2448  16.8538  16.8539  19.8166  19.8166  19.8166  21.1674
    21.6190  21.6190  21.6190  21.6714  21.6715  21.9555  21.9555  21.9555
    22.3837  22.3838  22.3838  23.6711

          k = 0.0250 0.0000 0.0000 ( 10803 PWs)   bands (ev):

   -73.3554 -73.3550 -73.3550 -73.3550 -39.5390 -39.5390 -39.5389 -39.5372
   -39.5371 -39.5364 -39.5364 -39.5364 -39.2881 -39.2875 -39.2875 -39.2875
    -4.1194  -1.9994  -1.9936  -1.9935   0.5478   0.5480   0.5489   2.0059
     6.2240   6.2322   6.2334   6.9593   6.9684   6.9845   7.7559   7.8302
     7.9566   7.9579   8.0015   8.0228   9.0780   9.0815   9.0895   9.4403
     9.4523  10.2834  10.2851  10.3058  11.8249  11.8303  11.8310  12.4060
    12.4091  12.5470  12.5473  12.5482  12.5613  12.5614  12.5617  12.8254
    13.5106  14.4643  14.4654  14.4668  16.0893  16.0932  16.0957  16.2449
    16.2501  16.2513  16.8360  16.8535  19.8165  19.8206  19.8247  21.1860
    21.5612  21.6164  21.6175  21.6184  21.6365  21.9619  21.9907  21.9951
    22.3625  22.3846  22.3967  23.6585

          k = 0.0500 0.0000 0.0000 ( 10779 PWs)   bands (ev):

   -73.3554 -73.3550 -73.3550 -73.3550 -39.5390 -39.5389 -39.5388 -39.5372
   -39.5370 -39.5364 -39.5364 -39.5363 -39.2880 -39.2875 -39.2875 -39.2874
    -4.1124  -2.0150  -1.9918  -1.9916   0.5502   0.5513   0.5548   1.9933
     6.1955   6.2257   6.2302   6.9282   6.9622   7.0246   7.6521   7.8445
     7.9779   7.9812   7.9882   8.1387   9.0666   9.0805   9.1130   9.4108
     9.4551  10.2720  10.2789  10.3576  11.8229  11.8439  11.8466  12.3979
    12.4105  12.5425  12.5431  12.5475  12.5608  12.5612  12.5639  12.8265
    13.5331  14.4595  14.4643  14.4700  16.0603  16.0710  16.0823  16.2447
    16.2644  16.2656  16.7833  16.8519  19.8158  19.8326  19.8478  21.2411
    21.4360  21.4931  21.5405  21.6130  21.6169  21.9798  22.0514  22.0541
    22.3210  22.3879  22.4338  23.6175

          k = 0.0750 0.0000 0.0000 ( 10779 PWs)   bands (ev):

   -73.3554 -73.3550 -73.3550 -73.3550 -39.5390 -39.5389 -39.5388 -39.5372
   -39.5370 -39.5364 -39.5364 -39.5363 -39.2880 -39.2875 -39.2874 -39.2874
    -4.1006  -2.0406  -1.9888  -1.9884   0.5543   0.5567   0.5641   1.9726
     6.1539   6.2148   6.2240   6.8833   6.9512   7.0860   7.5498   7.8675
     7.9672   8.0125   8.0132   8.2608   9.0483   9.0795   9.1525   9.3706
     9.4598  10.2537  10.2689  10.4335  11.8201  11.8653  11.8718  12.3844
    12.4127  12.5317  12.5364  12.5447  12.5602  12.5627  12.5700  12.8283
    13.5692  14.4517  14.4625  14.4754  16.0211  16.0358  16.0637  16.2442
    16.2804  16.2843  16.7000  16.8488  19.8128  19.8524  19.8829  21.2879
    21.3311  21.3360  21.4047  21.6063  21.6160  22.0054  22.0340  22.1116
    22.3244  22.3963  22.4901  23.5529

          k = 0.1000 0.0000 0.0000 ( 10779 PWs)   bands (ev):

   -73.3554 -73.3550 -73.3550 -73.3550 -39.5389 -39.5389 -39.5387 -39.5372
   -39.5370 -39.5364 -39.5364 -39.5364 -39.2880 -39.2875 -39.2874 -39.2874
    -4.0842  -2.0756  -1.9848  -1.9840   0.5599   0.5644   0.5766   1.9442
     6.1048   6.1993   6.2135   6.8319   6.9346   7.1637   7.4536   7.8980
     7.9403   8.0475   8.0591   8.3847   9.0235   9.0794   9.2086   9.3273
     9.4663  10.2294  10.2555  10.5238  11.8175  11.8931  11.9055  12.3659
    12.4157  12.5153  12.5278  12.5394  12.5597  12.5666  12.5799  12.8307
    13.6174  14.4412  14.4606  14.4834  15.9761  15.9900  16.0422  16.2432
    16.2914  16.3074  16.5915  16.8437  19.8053  19.8797  19.9263  21.1312
    21.1537  21.2501  21.4512  21.5999  21.6171  21.9400  22.0333  22.1586
    22.3812  22.4139  22.5575  23.4671

          k = 0.1250 0.0000 0.0000 ( 10771 PWs)   bands (ev):

   -73.3553 -73.3550 -73.3550 -73.3550 -39.5389 -39.5388 -39.5387 -39.5372
   -39.5370 -39.5365 -39.5364 -39.5364 -39.2880 -39.2875 -39.2874 -39.2874
    -4.0631  -2.1193  -1.9797  -1.9785   0.5671   0.5742   0.5916   1.9087
     6.0526   6.1790   6.1970   6.7810   6.9114   7.2541   7.3650   7.9098
     7.9342   8.0788   8.1157   8.5081   8.9936   9.0820   9.2808   9.2861
     9.4747  10.2002  10.2391  10.6203  11.8164  11.9254  11.9465  12.3431
    12.4194  12.4935  12.5176  12.5319  12.5591  12.5728  12.5935  12.8338
    13.6754  14.4281  14.4591  14.4943  15.9279  15.9366  16.0192  16.2414
    16.2964  16.3321  16.4635  16.8360  19.7903  19.9141  19.9750  20.9531
    20.9711  21.0887  21.5608  21.6210  21.6315  21.8259  22.0570  22.1988
    22.4460  22.4482  22.6283  23.3639

          k = 0.1500 0.0000 0.0000 ( 10743 PWs)   bands (ev):

   -73.3553 -73.3550 -73.3550 -73.3550 -39.5389 -39.5387 -39.5386 -39.5371
   -39.5368 -39.5365 -39.5363 -39.5362 -39.2879 -39.2875 -39.2874 -39.2873
    -4.0375  -2.1709  -1.9738  -1.9721   0.5756   0.5864   0.6084   1.8669
     6.0006   6.1539   6.1729   6.7364   6.8804   7.2852   7.3549   7.8786
     7.9739   8.1037   8.1801   8.6286   8.9600   9.0897   9.2498   9.3680
     9.4849  10.1670  10.2202  10.7157  11.8175  11.9603  11.9932  12.3169
    12.4237  12.4663  12.5067  12.5226  12.5587  12.5810  12.6109  12.8372
    13.7412  14.4131  14.4589  14.5088  15.8778  15.8790  15.9957  16.2383
    16.2942  16.3214  16.3573  16.8254  19.7648  19.9551  20.0269  20.7423
    20.8090  20.9248  21.5651  21.6282  21.7206  21.7914  22.0717  22.2356
    22.4968  22.5098  22.6969  23.2473

          k = 0.1750 0.0000 0.0000 ( 10751 PWs)   bands (ev):

   -73.3553 -73.3550 -73.3550 -73.3550 -39.5388 -39.5387 -39.5386 -39.5372
   -39.5368 -39.5365 -39.5364 -39.5362 -39.2879 -39.2875 -39.2874 -39.2873
    -4.0074  -2.2295  -1.9670  -1.9649   0.5853   0.6010   0.6263   1.8194
     5.9511   6.1240   6.1401   6.7021   6.8408   7.2146   7.4645   7.8496
     8.0145   8.1209   8.2490   8.7430   8.9249   9.1069   9.2195   9.4676
     9.4968  10.1308  10.1993  10.8037  11.8216  11.9957  12.0440  12.2893
    12.4285  12.4335  12.4960  12.5115  12.5582  12.5913  12.6318  12.8408
    13.8126  14.3966  14.4603  14.5272  15.8205  15.8270  15.9722  16.1696
    16.2332  16.2840  16.3820  16.8117  19.7268  20.0022  20.0809  20.5288
    20.6452  20.7606  21.5559  21.6384  21.6387  21.9823  22.0759  22.2714
    22.5631  22.5670  22.7602  23.1221

          k = 0.2000 0.0000 0.0000 ( 10751 PWs)   bands (ev):

   -73.3553 -73.3550 -73.3550 -73.3550 -39.5388 -39.5387 -39.5386 -39.5372
   -39.5368 -39.5366 -39.5364 -39.5363 -39.2879 -39.2875 -39.2874 -39.2873
    -3.9728  -2.2942  -1.9596  -1.9571   0.5963   0.6179   0.6448   1.7670
     5.9057   6.0897   6.0992   6.6797   6.7919   7.1535   7.5817   7.8257
     8.0532   8.1308   8.3184   8.8462   8.8915   9.1399   9.1952   9.5105
     9.5769  10.0925  10.1766  10.8776  11.8291  12.0301  12.0972  12.2632
    12.3954  12.4338  12.4865  12.4988  12.5578  12.6037  12.6562  12.8443
    13.8875  14.3792  14.4644  14.5503  15.7644  15.7765  15.9492  16.0119
    16.2255  16.2652  16.4057  16.7949  19.6759  20.0549  20.1368  20.3181
    20.4801  20.5974  21.5464  21.5877  21.6510  22.0709  22.1833  22.3071
    22.6085  22.6544  22.8166  22.9947

          k = 0.2250 0.0000 0.0000 ( 10743 PWs)   bands (ev):

   -73.3553 -73.3550 -73.3550 -73.3550 -39.5387 -39.5386 -39.5385 -39.5373
   -39.5368 -39.5366 -39.5364 -39.5363 -39.2878 -39.2875 -39.2874 -39.2873
    -3.9338  -2.3640  -1.9518  -1.9488   0.6082   0.6374   0.6630   1.7108
     5.8658   6.0518   6.0521   6.6688   6.7342   7.1017   7.7057   7.8086
     8.0873   8.1340   8.3819   8.8656   8.9319   9.1761   9.1964   9.5258
     9.6922  10.0526  10.1525  10.9308  11.8399  12.0621  12.1515  12.2424
    12.3520  12.4393  12.4791  12.4843  12.5575  12.6183  12.6834  12.8475
    13.9643  14.3615  14.4722  14.5788  15.7133  15.7269  15.8516  15.9272
    16.2142  16.2373  16.4274  16.7752  19.6140  20.1127  20.1149  20.1945
    20.3151  20.4367  21.5383  21.5699  21.6647  22.0587  22.3432  22.3760
    22.6473  22.7557  22.8655  22.8799

          k = 0.2500 0.0000 0.0000 ( 10699 PWs)   bands (ev):

   -73.3553 -73.3550 -73.3549 -73.3549 -39.5386 -39.5385 -39.5383 -39.5372
   -39.5366 -39.5365 -39.5363 -39.5363 -39.2877 -39.2874 -39.2873 -39.2872
    -3.8905  -2.4380  -1.9436  -1.9403   0.6209   0.6595   0.6804   1.6513
     5.8323   6.0016   6.0110   6.6677   6.6683   7.0584   7.7994   7.8352
     8.1143   8.1320   8.4304   8.8558   8.9991   9.1614   9.2784   9.5428
     9.8100  10.0117  10.1272  10.9570  11.8536  12.0907  12.2051  12.2312
    12.3043  12.4451  12.4682  12.4749  12.5574  12.6353  12.7128  12.8501
    14.0413  14.3445  14.4842  14.6133  15.6618  15.6792  15.6994  15.9065
    16.1982  16.2003  16.4468  16.7528  19.5442  19.9230  20.1527  20.1750
    20.2541  20.2799  21.5323  21.5832  21.6780  22.0405  22.3796  22.4963
    22.6808  22.8382  22.8668  22.9065

          k = 0.2750 0.0000 0.0000 ( 10727 PWs)   bands (ev):

   -73.3552 -73.3550 -73.3550 -73.3550 -39.5386 -39.5385 -39.5384 -39.5373
   -39.5367 -39.5366 -39.5364 -39.5364 -39.2878 -39.2874 -39.2874 -39.2873
    -3.8431  -2.5155  -1.9354  -1.9318   0.6341   0.6843   0.6965   1.5896
     5.8059   5.9504   5.9687   6.5960   6.6743   7.0226   7.7984   7.9687
     8.1261   8.1330   8.4537   8.8721   9.0555   9.1498   9.3786   9.5613
     9.9253   9.9712  10.1010  10.9517  11.8690  12.1145  12.2325  12.2535
    12.2566  12.4502  12.4508  12.4745  12.5576  12.6543  12.7427  12.8512
    14.1173  14.3287  14.5010  14.6540  15.5246  15.6338  15.6443  15.8872
    16.1539  16.1762  16.4632  16.7282  19.4708  19.7458  19.9959  20.1283
    20.2412  20.3156  21.5289  21.6234  21.6891  22.0162  22.4159  22.4530
    22.7099  22.9390  22.9562  22.9799

          k = 0.3000 0.0000 0.0000 ( 10723 PWs)   bands (ev):

   -73.3552 -73.3550 -73.3550 -73.3550 -39.5387 -39.5384 -39.5383 -39.5373
   -39.5367 -39.5367 -39.5364 -39.5363 -39.2877 -39.2875 -39.2874 -39.2872
    -3.7917  -2.5956  -1.9272  -1.9235   0.6478   0.7109   0.7118   1.5264
     5.7872   5.9011   5.9260   6.5190   6.6867   6.9932   7.8054   8.1040
     8.1176   8.1429   8.4497   8.9175   9.1092   9.1401   9.4886   9.5813
     9.9261  10.0397  10.0740  10.9134  11.8851  12.1303  12.2050  12.2474
    12.3046  12.4305  12.4565  12.4787  12.5585  12.6755  12.7721  12.8506
    14.1916  14.3154  14.5225  14.7015  15.3691  15.5917  15.6220  15.8695
    16.0985  16.1473  16.4763  16.7018  19.3980  19.5864  19.8474  19.9832
    20.3107  20.3793  21.5284  21.6858  21.6962  21.9846  22.3368  22.4517
    22.7357  22.9626  23.0619  23.1376

          k = 0.3250 0.0000 0.0000 ( 10736 PWs)   bands (ev):

   -73.3552 -73.3550 -73.3550 -73.3550 -39.5386 -39.5384 -39.5383 -39.5374
   -39.5367 -39.5367 -39.5365 -39.5364 -39.2877 -39.2875 -39.2874 -39.2873
    -3.7363  -2.6776  -1.9193  -1.9156   0.6616   0.7232   0.7422   1.4623
     5.7767   5.8552   5.8844   6.4394   6.7031   6.9689   7.8197   8.1078
     8.1449   8.2354   8.4286   8.9858   9.1310   9.1638   9.6024   9.6029
     9.8834  10.0466  10.1424  10.8442  11.9005  12.1173  12.1812  12.2737
    12.3474  12.4094  12.4621  12.4876  12.5604  12.6986  12.7991  12.8475
    14.2634  14.3055  14.5482  14.7557  15.2180  15.5536  15.6116  15.8534
    16.0347  16.1105  16.4862  16.6745  19.3296  19.4474  19.7096  19.8461
    20.3829  20.4447  21.5310  21.6982  21.7655  21.9441  22.2069  22.4863
    22.7587  22.9764  23.0646  23.3156

          k = 0.3500 0.0000 0.0000 ( 10720 PWs)   bands (ev):

   -73.3552 -73.3550 -73.3550 -73.3550 -39.5385 -39.5383 -39.5382 -39.5375
   -39.5367 -39.5367 -39.5365 -39.5364 -39.2877 -39.2874 -39.2874 -39.2872
    -3.6772  -2.7608  -1.9119  -1.9084   0.6753   0.7331   0.7756   1.3981
     5.7747   5.8143   5.8450   6.3590   6.7224   6.9484   7.8407   8.0978
     8.1406   8.3283   8.4308   9.0696   9.1212   9.2202   9.6246   9.7186
     9.8397  10.0191  10.2323  10.7485  11.9138  12.0726  12.1883  12.3077
    12.3840  12.3873  12.4676  12.5005  12.5649  12.7232  12.8228  12.8414
    14.3004  14.3326  14.5767  14.8164  15.0741  15.5204  15.6119  15.8383
    15.9639  16.0655  16.4931  16.6468  19.2691  19.3308  19.5843  19.7181
    20.4570  20.5115  21.5366  21.6941  21.8583  21.8938  22.0770  22.5185
    22.7790  22.9792  23.0521  23.4509

          k = 0.3750 0.0000 0.0000 ( 10708 PWs)   bands (ev):

   -73.3552 -73.3550 -73.3550 -73.3550 -39.5383 -39.5382 -39.5381 -39.5375
   -39.5367 -39.5366 -39.5365 -39.5364 -39.2877 -39.2874 -39.2874 -39.2872
    -3.6145  -2.8446  -1.9052  -1.9019   0.6886   0.7405   0.8120   1.3344
     5.7793   5.7814   5.8090   6.2795   6.7434   6.9305   7.8674   8.0886
     8.1316   8.3128   8.5286   9.1094   9.1649   9.2778   9.6474   9.7953
     9.8333   9.9919  10.3050  10.6320  11.9236  12.0251  12.2008  12.3452
    12.3646  12.4133  12.4728  12.5144  12.5744  12.7485  12.8316  12.8419
    14.3015  14.3984  14.6055  14.8834  14.9391  15.4924  15.6213  15.8240
    15.8887  16.0126  16.4976  16.6197  19.2193  19.2377  19.4726  19.6007
    20.5317  20.5785  21.5451  21.6833  21.8355  21.9524  21.9604  22.5467
    22.7967  22.9705  23.0575  23.5576

          k = 0.4000 0.0000 0.0000 ( 10724 PWs)   bands (ev):

   -73.3552 -73.3550 -73.3550 -73.3550 -39.5383 -39.5382 -39.5381 -39.5376
   -39.5368 -39.5366 -39.5366 -39.5365 -39.2877 -39.2875 -39.2874 -39.2873
    -3.5484  -2.9285  -1.8993  -1.8965   0.7013   0.7453   0.8515   1.2718
     5.7508   5.7773   5.7968   6.2026   6.7652   6.9142   7.8994   8.0810
     8.1201   8.2675   8.6428   9.0942   9.2702   9.3356   9.6702   9.7499
     9.9451   9.9660  10.3564  10.5003  11.9293  11.9835  12.2135  12.3420
    12.3823  12.4354  12.4779  12.5244  12.5924  12.7736  12.8174  12.8556
    14.3101  14.4602  14.6313  14.8148  14.9560  15.4689  15.6380  15.8094
    15.8135  15.9532  16.5006  16.5940  19.1687  19.1822  19.3755  19.4952
    20.6051  20.6440  21.5561  21.6642  21.7750  21.8371  22.0681  22.5680
    22.8118  22.9507  23.0853  23.5940

          k = 0.4250 0.0000 0.0000 ( 10724 PWs)   bands (ev):

   -73.3552 -73.3550 -73.3550 -73.3550 -39.5383 -39.5382 -39.5380 -39.5377
   -39.5368 -39.5366 -39.5366 -39.5366 -39.2877 -39.2876 -39.2874 -39.2872
    -3.4791  -3.0119  -1.8945  -1.8922   0.7129   0.7475   0.8941   1.2106
     5.7293   5.7508   5.8208   6.1294   6.7871   6.8984   7.9359   8.0757
     8.1077   8.2173   8.7467   9.0740   9.3848   9.3929   9.6917   9.7035
     9.9431  10.0516  10.3593  10.3829  11.9304  11.9517  12.2259  12.3203
    12.4157  12.4510  12.4833  12.5284  12.6188  12.7976  12.7987  12.8635
    14.3280  14.5168  14.6505  14.7030  15.0338  15.4451  15.6598  15.7472
    15.7938  15.8897  16.5031  16.5706  19.1233  19.1588  19.2944  19.4029
    20.6742  20.7047  21.5688  21.6341  21.7224  21.7358  22.1776  22.5776
    22.8239  22.9224  23.1335  23.5754

          k = 0.4500 0.0000 0.0000 ( 10724 PWs)   bands (ev):

   -73.3551 -73.3551 -73.3550 -73.3550 -39.5382 -39.5381 -39.5380 -39.5378
   -39.5368 -39.5367 -39.5367 -39.5366 -39.2877 -39.2876 -39.2873 -39.2872
    -3.4069  -3.0943  -1.8908  -1.8892   0.7234   0.7472   0.9398   1.1514
     5.7151   5.7302   5.8534   6.0610   6.8084   6.8824   7.9763   8.0734
     8.0959   8.1662   8.8355   9.0473   9.4489   9.5045   9.6558   9.7093
     9.9272  10.1497  10.2158  10.3829  11.9279  11.9312  12.2385  12.3002
    12.4422  12.4608  12.4901  12.5272  12.6504  12.7754  12.8193  12.8655
    14.3566  14.5666  14.6049  14.6591  15.1156  15.4107  15.6845  15.7038
    15.7764  15.8260  16.5066  16.5502  19.1002  19.1467  19.2333  19.3253
    20.7341  20.7555  21.5799  21.5953  21.6571  21.6848  22.2849  22.5684
    22.8335  22.8921  23.1982  23.5192

          k = 0.4750 0.0000 0.0000 ( 10716 PWs)   bands (ev):

   -73.3551 -73.3551 -73.3550 -73.3550 -39.5382 -39.5381 -39.5378 -39.5378
   -39.5368 -39.5367 -39.5366 -39.5366 -39.2877 -39.2876 -39.2873 -39.2872
    -3.3321  -3.1754  -1.8884  -1.8876   0.7322   0.7444   0.9885   1.0945
     5.7081   5.7159   5.8941   5.9986   6.8287   6.8657   8.0201   8.0743
     8.0859   8.1157   8.9084   9.0122   9.5032   9.6066   9.6168   9.7159
     9.9297  10.0808  10.2360  10.3566  11.9216  11.9235  12.2517  12.2821
    12.4589  12.4658  12.4998  12.5214  12.6839  12.7479  12.8378  12.8616
    14.3976  14.5212  14.6076  14.6551  15.1996  15.3553  15.6958  15.7099
    15.7566  15.7673  16.5122  16.5336  19.0974  19.1335  19.2060  19.2639
    20.7778  20.7889  21.5634  21.5715  21.6257  21.6580  22.3845  22.5330
    22.8417  22.8673  23.2750  23.4427

          k = 0.5000 0.0000 0.0000 ( 10676 PWs)   bands (ev):

   -73.3551 -73.3551 -73.3549 -73.3549 -39.5380 -39.5380 -39.5376 -39.5376
   -39.5368 -39.5368 -39.5365 -39.5365 -39.2875 -39.2875 -39.2872 -39.2872
    -3.2548  -3.2548  -1.8873  -1.8873   0.7393   0.7393   1.0401   1.0401
     5.7085   5.7085   5.9427   5.9427   6.8479   6.8479   8.0668   8.0668
     8.0786   8.0786   8.9667   8.9667   9.5559   9.5559   9.6928   9.6928
     9.9765   9.9765  10.3064  10.3064  11.9203  11.9203  12.2661  12.2661
    12.4658  12.4658  12.5116  12.5116  12.7170  12.7170  12.8522  12.8522
    14.4523  14.4523  14.6376  14.6376  15.2819  15.2819  15.7207  15.7207
    15.7343  15.7343  16.5210  16.5210  19.1114  19.1114  19.2215  19.2215
    20.7974  20.7974  21.5544  21.5544  21.6370  21.6370  22.4698  22.4698
    22.8515  22.8515  23.3585  23.3585

          k = 0.5000 0.0250 0.0000 ( 10728 PWs)   bands (ev):

   -73.3551 -73.3551 -73.3550 -73.3550 -39.5382 -39.5382 -39.5378 -39.5378
   -39.5368 -39.5368 -39.5366 -39.5366 -39.2876 -39.2876 -39.2873 -39.2873
    -3.2528  -3.2528  -1.8891  -1.8891   0.7370   0.7370   1.0406   1.0406
     5.6908   5.6908   5.9624   5.9624   6.8513   6.8513   7.9833   7.9833
     8.1597   8.1597   8.9688   8.9688   9.5455   9.5455   9.6944   9.6944
     9.9870   9.9870  10.3075  10.3075  11.9229  11.9229  12.2652  12.2652
    12.4634  12.4634  12.5107  12.5107  12.7171  12.7171  12.8507  12.8507
    14.4457  14.4457  14.6479  14.6479  15.2803  15.2803  15.7165  15.7165
    15.7391  15.7391  16.5092  16.5092  19.1175  19.1175  19.2265  19.2265
    20.7977  20.7977  21.5273  21.5273  21.6356  21.6356  22.4942  22.4942
    22.8412  22.8412  23.3318  23.3318

          k = 0.5000 0.0500 0.0000 ( 10718 PWs)   bands (ev):

   -73.3551 -73.3551 -73.3550 -73.3550 -39.5382 -39.5382 -39.5378 -39.5378
   -39.5368 -39.5368 -39.5365 -39.5365 -39.2876 -39.2876 -39.2873 -39.2873
    -3.2468  -3.2468  -1.8946  -1.8946   0.7301   0.7301   1.0418   1.0418
     5.6499   5.6499   6.0090   6.0090   6.8617   6.8617   7.8932   7.8932
     8.2435   8.2435   8.9749   8.9749   9.5189   9.5189   9.6973   9.6973
    10.0155  10.0155  10.3115  10.3115  11.9311  11.9311  12.2628  12.2628
    12.4570  12.4570  12.5084  12.5084  12.7181  12.7181  12.8465  12.8465
    14.4300  14.4300  14.6746  14.6746  15.2758  15.2758  15.7071  15.7071
    15.7504  15.7504  16.4748  16.4748  19.1333  19.1333  19.2428  19.2428
    20.7980  20.7980  21.4513  21.4513  21.6373  21.6373  22.5514  22.5514
    22.8135  22.8135  23.2672  23.2672

          k = 0.5000 0.0750 0.0000 ( 10710 PWs)   bands (ev):

   -73.3551 -73.3551 -73.3550 -73.3550 -39.5382 -39.5382 -39.5378 -39.5378
   -39.5368 -39.5368 -39.5365 -39.5365 -39.2876 -39.2876 -39.2873 -39.2873
    -3.2369  -3.2369  -1.9037  -1.9037   0.7195   0.7195   1.0431   1.0431
     5.6016   5.6016   6.0660   6.0660   6.8790   6.8790   7.8037   7.8037
     8.3240   8.3240   8.9830   8.9830   9.4844   9.4844   9.6989   9.6989
    10.0542  10.0542  10.3209  10.3209  11.9444  11.9444  12.2589  12.2589
    12.4465  12.4465  12.5045  12.5045  12.7197  12.7197  12.8395  12.8395
    14.4117  14.4117  14.7103  14.7103  15.2684  15.2684  15.6936  15.6936
    15.7668  15.7668  16.4211  16.4211  19.1533  19.1533  19.2741  19.2741
    20.7959  20.7959  21.3474  21.3474  21.6427  21.6427  22.6006  22.6006
    22.7832  22.7832  23.1922  23.1922

          k = 0.5000 0.1000 0.0000 ( 10716 PWs)   bands (ev):

   -73.3551 -73.3551 -73.3550 -73.3550 -39.5382 -39.5382 -39.5377 -39.5377
   -39.5369 -39.5369 -39.5365 -39.5365 -39.2876 -39.2876 -39.2873 -39.2873
    -3.2232  -3.2232  -1.9166  -1.9166   0.7062   0.7062   1.0439   1.0439
     5.5531   5.5531   6.1241   6.1241   6.9035   6.9035   7.7174   7.7174
     8.4015   8.4015   8.9904   8.9904   9.4488   9.4488   9.6989   9.6989
    10.0936  10.0936  10.3402  10.3402  11.9624  11.9624  12.2537  12.2537
    12.4324  12.4324  12.4986  12.4986  12.7222  12.7222  12.8300  12.8300
    14.3947  14.3947  14.7493  14.7493  15.2585  15.2585  15.6753  15.6753
    15.7883  15.7883  16.3527  16.3527  19.1731  19.1731  19.3217  19.3217
    20.7861  20.7861  21.2378  21.2378  21.6483  21.6483  22.5883  22.5883
    22.7740  22.7740  23.1351  23.1351

          k = 0.5000 0.1250 0.0000 ( 10728 PWs)   bands (ev):

   -73.3551 -73.3551 -73.3550 -73.3550 -39.5383 -39.5383 -39.5377 -39.5377
   -39.5370 -39.5370 -39.5365 -39.5365 -39.2876 -39.2876 -39.2873 -39.2873
    -3.2055  -3.2055  -1.9333  -1.9333   0.6915   0.6915   1.0432   1.0432
     5.5078   5.5078   6.1777   6.1777   6.9348   6.9348   7.6373   7.6373
     8.4761   8.4761   8.9938   8.9938   9.4173   9.4173   9.6973   9.6973
    10.1242  10.1242  10.3749  10.3749  11.9842  11.9842  12.2472  12.2472
    12.4157  12.4157  12.4906  12.4906  12.7257  12.7257  12.8182  12.8182
    14.3811  14.3811  14.7877  14.7877  15.2462  15.2462  15.6516  15.6516
    15.8145  15.8145  16.2755  16.2755  19.1923  19.1923  19.3830  19.3830
    20.7595  20.7595  21.1414  21.1414  21.6498  21.6498  22.5194  22.5194
    22.7561  22.7561  23.1213  23.1213

          k = 0.5000 0.1500 0.0000 ( 10724 PWs)   bands (ev):

   -73.3551 -73.3551 -73.3550 -73.3550 -39.5383 -39.5383 -39.5376 -39.5376
   -39.5371 -39.5371 -39.5365 -39.5365 -39.2876 -39.2876 -39.2873 -39.2873
[...]
    16.1594  16.1594  16.1594  16.1594  19.7289  19.7289  19.7289  19.7289
    20.6760  20.6760  20.6760  20.6760  20.9390  20.9390  20.9390  20.9390
    22.5716  22.5716  22.5716  22.5716

          k = 0.4750 0.4750 0.0000 ( 10710 PWs)   bands (ev):

   -73.3550 -73.3550 -73.3550 -73.3550 -39.5382 -39.5382 -39.5381 -39.5380
   -39.5366 -39.5366 -39.5365 -39.5364 -39.2874 -39.2874 -39.2874 -39.2874
    -2.6871  -2.5707  -2.5702  -2.4646   0.7218   0.7287   0.7728   0.7818
     5.5644   5.5909   5.6801   5.7054   7.4433   7.5383   7.6041   7.6648
     8.8983   8.9128   8.9877   9.0278   9.4801   9.4925   9.5367   9.5471
    10.4622  10.5781  10.5997  10.7127  11.9884  12.0295  12.0362  12.0794
    12.4247  12.4495  12.4834  12.5063  12.7139  12.7203  12.7602  12.7617
    14.6660  14.7037  14.7533  14.7617  14.7628  14.8281  14.8663  14.8867
    16.1158  16.1410  16.1743  16.2039  19.6431  19.7230  19.7437  19.8185
    20.5865  20.6600  20.6861  20.6897  20.7137  20.9217  20.9990  21.2538
    22.3974  22.5579  22.5982  22.7661

          k = 0.4500 0.4500 0.0000 ( 10716 PWs)   bands (ev):

   -73.3551 -73.3551 -73.3550 -73.3550 -39.5383 -39.5383 -39.5380 -39.5380
   -39.5367 -39.5366 -39.5364 -39.5364 -39.2875 -39.2874 -39.2874 -39.2874
    -2.8038  -2.5624  -2.5613  -2.3628   0.6970   0.7108   0.7957   0.8182
     5.5111   5.5632   5.7422   5.7890   7.3010   7.5091   7.6391   7.7111
     8.8184   8.9112   8.9916   9.1069   9.4391   9.4650   9.5516   9.5706
    10.3383  10.5734  10.6052  10.8339  11.9544  12.0252  12.0413  12.1204
    12.3855  12.4291  12.4979  12.5340  12.6789  12.7007  12.7747  12.7753
    14.5775  14.6341  14.7304  14.7621  14.7670  14.8734  14.9755  14.9956
    16.0714  16.1191  16.1862  16.2493  19.5743  19.7262  19.7666  19.8849
    20.3696  20.5618  20.6712  20.7156  20.7607  20.9211  21.1035  21.5679
    22.2505  22.5583  22.6378  22.9746

          k = 0.4250 0.4250 0.0000 ( 10718 PWs)   bands (ev):

   -73.3551 -73.3551 -73.3551 -73.3550 -39.5383 -39.5383 -39.5380 -39.5379
   -39.5368 -39.5367 -39.5364 -39.5364 -39.2875 -39.2874 -39.2874 -39.2874
    -2.9218  -2.5485  -2.5469  -2.2700   0.6751   0.6974   0.8167   0.8597
     5.4713   5.5462   5.8160   5.8772   7.1567   7.4824   7.6694   7.7077
     8.7245   8.9345   8.9909   9.1702   9.4016   9.4370   9.5622   9.5882
    10.2195  10.5708  10.5950  10.9489  11.9372  12.0182  12.0489  12.1480
    12.3581  12.4065  12.5127  12.5434  12.6371  12.6899  12.7810  12.7874
    14.4972  14.5786  14.7221  14.7606  14.7759  14.9213  15.0888  15.1113
    16.0243  16.0955  16.1962  16.2948  19.5290  19.7377  19.7934  19.8716
    20.2259  20.4869  20.6292  20.8006  20.8235  20.9254  21.2325  21.8549
    22.1362  22.5758  22.6897  23.1923

          k = 0.4000 0.4000 0.0000 ( 10714 PWs)   bands (ev):

   -73.3551 -73.3551 -73.3550 -73.3550 -39.5384 -39.5383 -39.5378 -39.5378
   -39.5369 -39.5368 -39.5363 -39.5363 -39.2876 -39.2874 -39.2874 -39.2874
    -3.0394  -2.5291  -2.5270  -2.1879   0.6559   0.6889   0.8340   0.9074
     5.4461   5.5394   5.9015   5.9660   7.0207   7.4578   7.6394   7.7181
     8.6246   8.9055   9.0494   9.1840   9.3854   9.4163   9.5724   9.6031
    10.1093  10.5620  10.5626  11.0545  11.9398  12.0075  12.0591  12.1605
    12.3469  12.3813  12.5296  12.5334  12.5896  12.6907  12.7812  12.7979
    14.4253  14.5343  14.7343  14.7557  14.7908  14.9675  15.2041  15.2291
    15.9746  16.0725  16.2049  16.3389  19.5106  19.7373  19.7556  19.8471
    20.2071  20.4150  20.5786  20.8915  20.8959  20.9770  21.3708  22.0568
    22.0863  22.6185  22.7515  23.4161

          k = 0.3750 0.3750 0.0000 ( 10726 PWs)   bands (ev):

   -73.3551 -73.3551 -73.3551 -73.3550 -39.5384 -39.5383 -39.5378 -39.5378
   -39.5370 -39.5368 -39.5364 -39.5363 -39.2876 -39.2874 -39.2874 -39.2874
    -3.1551  -2.5045  -2.5020  -2.1178   0.6391   0.6849   0.8461   0.9622
     5.4360   5.5423   5.9983   6.0492   6.9028   7.4341   7.5591   7.7467
     8.5256   8.8519   9.1062   9.1381   9.3841   9.4199   9.5907   9.6234
    10.0104  10.5066  10.5371  11.1464  11.9613  11.9939  12.0710  12.1666
    12.3467  12.3528  12.5134  12.5334  12.5544  12.6970  12.7760  12.8080
    14.3615  14.4983  14.7462  14.7709  14.8132  15.0038  15.3191  15.3440
    15.9283  16.0521  16.2129  16.3802  19.5204  19.6112  19.7763  19.8892
    20.2318  20.3486  20.5301  20.9114  20.9723  21.1444  21.5081  22.0131
    22.2400  22.6937  22.8169  23.6392

          k = 0.3500 0.3500 0.0000 ( 10682 PWs)   bands (ev):

   -73.3551 -73.3550 -73.3550 -73.3549 -39.5383 -39.5382 -39.5377 -39.5376
   -39.5369 -39.5367 -39.5363 -39.5363 -39.2875 -39.2873 -39.2873 -39.2873
    -3.2677  -2.4750  -2.4723  -2.0604   0.6244   0.6843   0.8519   1.0252
     5.4412   5.5543   6.1055   6.1179   6.8139   7.4097   7.4645   7.7688
     8.4338   8.7953   9.0588   9.1129   9.3639   9.4507   9.6197   9.6688
     9.9226  10.4317  10.4884  11.2184  11.9814  11.9973  12.0834  12.1780
    12.3201  12.3499  12.4814  12.4942  12.5761  12.7019  12.7663  12.8184
    14.3058  14.4686  14.7312  14.8302  14.8485  15.0179  15.4314  15.4515
    15.8994  16.0359  16.2206  16.4172  19.5159  19.5581  19.7938  19.9410
    20.2306  20.3276  20.4951  20.9294  21.0467  21.3389  21.6373  22.0098
    22.3242  22.7915  22.8739  23.8344

          k = 0.3250 0.3250 0.0000 ( 10681 PWs)   bands (ev):

   -73.3551 -73.3550 -73.3550 -73.3549 -39.5384 -39.5382 -39.5376 -39.5375
   -39.5370 -39.5368 -39.5363 -39.5362 -39.2876 -39.2873 -39.2873 -39.2873
    -3.3761  -2.4412  -2.4382  -2.0158   0.6116   0.6854   0.8508   1.0967
     5.4615   5.5747   6.1613   6.2219   6.7660   7.3682   7.3825   7.7782
     8.3537   8.7463   8.9639   9.0767   9.3193   9.4727   9.6476   9.7567
     9.8417  10.3470  10.4136  11.2628  11.9766  12.0401  12.0954  12.1998
    12.2828  12.3519  12.4292  12.4818  12.5995  12.7019  12.7527  12.8291
    14.2571  14.4443  14.7099  14.8807  14.9289  14.9976  15.5394  15.5468
    15.9035  16.0250  16.2283  16.4492  19.4619  19.6223  19.8006  19.9994
    20.1833  20.3760  20.4863  20.9582  21.1126  21.5128  21.7530  22.0658
    22.3687  22.8877  22.9049  23.8697

          k = 0.3000 0.3000 0.0000 ( 10691 PWs)   bands (ev):

   -73.3551 -73.3550 -73.3550 -73.3549 -39.5385 -39.5383 -39.5378 -39.5374
   -39.5369 -39.5368 -39.5362 -39.5362 -39.2876 -39.2873 -39.2873 -39.2873
    -3.4793  -2.4034  -2.4003  -1.9834   0.6005   0.6864   0.8424   1.1767
     5.4962   5.6030   6.1742   6.3447   6.7647   7.2791   7.3506   7.7695
     8.2879   8.7135   8.8627   9.0185   9.2584   9.4739   9.6583   9.7623
     9.8700  10.2651  10.3162  11.2729  11.9860  12.0710  12.1179  12.2313
    12.2423  12.3453  12.3880  12.4780  12.6191  12.6956  12.7358  12.8395
    14.2145  14.4251  14.6823  14.9344  14.9407  15.0419  15.6275  15.6417
    15.9456  16.0215  16.2363  16.4761  19.4465  19.7103  19.7919  20.0567
    20.1535  20.4472  20.5139  20.9987  21.1645  21.6267  21.8487  22.2033
    22.3968  22.8987  22.9610  23.8210

          k = 0.2750 0.2750 0.0000 ( 10711 PWs)   bands (ev):

   -73.3552 -73.3550 -73.3550 -73.3549 -39.5386 -39.5383 -39.5379 -39.5374
   -39.5369 -39.5369 -39.5363 -39.5362 -39.2876 -39.2874 -39.2873 -39.2873
    -3.5767  -2.3623  -2.3592  -1.9618   0.5909   0.6855   0.8269   1.2641
     5.5442   5.6386   6.1648   6.4692   6.8018   7.2055   7.3127   7.7398
     8.2344   8.7019   8.7643   8.9497   9.1885   9.4634   9.6211   9.6977
     9.9760  10.1983  10.2097  11.2470  12.0118  12.0719  12.1619  12.2022
    12.2691  12.3157  12.3751  12.4818  12.6316  12.6836  12.7160  12.8490
    14.1758  14.4109  14.6489  14.8585  15.0016  15.1757  15.6937  15.7380
    16.0145  16.0283  16.2449  16.4988  19.4633  19.7691  19.8190  20.0833
    20.1895  20.5296  20.5802  21.0500  21.1989  21.6869  21.9119  22.3941
    22.4236  22.8726  22.9933  23.7289

          k = 0.2500 0.2500 0.0000 ( 10685 PWs)   bands (ev):

   -73.3551 -73.3550 -73.3550 -73.3549 -39.5386 -39.5384 -39.5379 -39.5372
   -39.5368 -39.5367 -39.5362 -39.5362 -39.2876 -39.2873 -39.2873 -39.2872
    -3.6674  -2.3188  -2.3158  -1.9497   0.5826   0.6816   0.8050   1.3572
     5.6042   5.6813   6.1484   6.5865   6.8618   7.1577   7.2694   7.6902
     8.1861   8.6796   8.7083   8.8790   9.1141   9.4477   9.5190   9.6569
     9.9950  10.1545  10.1673  11.1898  12.0496  12.0565  12.1536  12.2214
    12.2794  12.3100  12.3753  12.4904  12.6354  12.6673  12.6933  12.8561
    14.1378  14.4018  14.6114  14.7673  15.0840  15.3256  15.7464  15.8284
    16.0428  16.0980  16.2545  16.5191  19.5064  19.7407  19.9425  20.1007
    20.2757  20.6204  20.6789  21.1122  21.2153  21.7269  21.9268  22.4577
    22.5437  22.8975  22.9717  23.6010

          k = 0.2250 0.2250 0.0000 ( 10731 PWs)   bands (ev):

   -73.3552 -73.3550 -73.3550 -73.3550 -39.5387 -39.5385 -39.5382 -39.5372
   -39.5369 -39.5368 -39.5363 -39.5363 -39.2877 -39.2874 -39.2874 -39.2874
    -3.7510  -2.2736  -2.2708  -1.9451   0.5754   0.6738   0.7775   1.4533
     5.6741   5.7307   6.1362   6.6809   6.9325   7.1501   7.2232   7.6263
     8.1316   8.6185   8.7069   8.8309   9.0373   9.3910   9.4299   9.6047
     9.8850  10.1334  10.2310  11.1088  12.0316  12.0907  12.1116  12.2489
    12.2745  12.3497  12.3783  12.5010  12.6304  12.6488  12.6684  12.8593
    14.0953  14.3977  14.5716  14.6813  15.1816  15.4861  15.7881  15.9138
    16.0680  16.1779  16.2651  16.5391  19.5714  19.7138  20.0751  20.1366
    20.3819  20.7205  20.7966  21.1859  21.2177  21.7672  21.8918  22.4857
    22.5635  22.9014  23.0420  23.4992

          k = 0.2000 0.2000 0.0000 ( 10703 PWs)   bands (ev):

   -73.3552 -73.3550 -73.3550 -73.3549 -39.5387 -39.5385 -39.5382 -39.5370
   -39.5369 -39.5366 -39.5363 -39.5362 -39.2877 -39.2873 -39.2873 -39.2873
    -3.8269  -2.2279  -2.2254  -1.9462   0.5692   0.6619   0.7459   1.5497
     5.7517   5.7871   6.1331   6.7382   7.0063   7.1791   7.1917   7.5587
     8.0637   8.5824   8.6495   8.8500   8.9582   9.2564   9.4119   9.5359
     9.7536  10.1303  10.2977  11.0112  12.0012  12.0679  12.1193  12.2326
    12.3266  12.3773  12.3929  12.5121  12.6186  12.6300  12.6432  12.8586
    14.0429  14.3988  14.5328  14.6109  15.2930  15.6504  15.8231  15.9960
    16.0984  16.2464  16.2772  16.5622  19.6536  19.6940  20.1908  20.2065
    20.5026  20.8351  20.9026  21.2296  21.2714  21.8151  21.8276  22.4593
    22.5263  22.8170  23.1832  23.4304

          k = 0.1750 0.1750 0.0000 ( 10707 PWs)   bands (ev):

   -73.3553 -73.3550 -73.3550 -73.3549 -39.5387 -39.5385 -39.5383 -39.5369
   -39.5369 -39.5366 -39.5363 -39.5362 -39.2877 -39.2873 -39.2873 -39.2873
    -3.8948  -2.1827  -2.1805  -1.9513   0.5638   0.6465   0.7117   1.6435
     5.8342   5.8501   6.1396   6.7652   7.0675   7.1541   7.2543   7.5117
     7.9855   8.5568   8.5597   8.8726   8.9069   9.1339   9.3941   9.4554
     9.6290  10.1400  10.3463  10.9028  11.9685  12.0230  12.1119  12.2465
    12.3756  12.3831  12.4266  12.5222  12.6033  12.6120  12.6198  12.8546
    13.9757  14.4044  14.4992  14.5598  15.4151  15.8060  15.8560  16.0803
    16.1298  16.2910  16.2973  16.5913  19.6843  19.7409  20.2669  20.3171
    20.6357  20.9448  20.9707  21.3075  21.3664  21.7611  21.8705  22.3357
    22.4880  22.7516  23.1749  23.3989

          k = 0.1500 0.1500 0.0000 ( 10733 PWs)   bands (ev):

   -73.3553 -73.3550 -73.3550 -73.3549 -39.5388 -39.5386 -39.5384 -39.5370
   -39.5370 -39.5365 -39.5364 -39.5364 -39.2878 -39.2874 -39.2874 -39.2873
    -3.9542  -2.1394  -2.1376  -1.9588   0.5593   0.6284   0.6765   1.7315
     5.9182   5.9189   6.1537   6.7827   7.0659   7.2014   7.2631   7.5407
     7.9065   8.4583   8.5178   8.7688   8.9753   9.0501   9.3699   9.3748
     9.5253  10.1588  10.3738  10.7887  11.9361  11.9783  12.0735  12.2801
    12.3880  12.4200  12.4583  12.5310  12.5881  12.5953  12.6003  12.8488
    13.8942  14.4136  14.4756  14.5249  15.5432  15.8901  15.9318  16.1592
    16.1762  16.3111  16.3279  16.6288  19.6858  19.8110  20.3661  20.3824
    20.7799  20.9540  21.1275  21.4528  21.4670  21.7087  21.9289  22.1466
    22.4641  22.6814  23.0516  23.4063

          k = 0.1250 0.1250 0.0000 ( 10765 PWs)   bands (ev):

   -73.3553 -73.3550 -73.3550 -73.3550 -39.5389 -39.5388 -39.5386 -39.5371
   -39.5370 -39.5364 -39.5364 -39.5364 -39.2879 -39.2875 -39.2875 -39.2874
    -4.0050  -2.0993  -2.0980  -1.9674   0.5555   0.6089   0.6423   1.8111
     5.9914   5.9998   6.1721   6.8049   7.0385   7.2093   7.2872   7.6392
     7.8366   8.3508   8.4482   8.6404   9.0186   9.0423   9.2875   9.3502
     9.4585  10.1838  10.3811  10.6731  11.9059  11.9359  12.0207  12.3161
    12.3931  12.4590  12.4858  12.5382  12.5758  12.5806  12.5854  12.8423
    13.8037  14.4252  14.4631  14.5015  15.6720  15.9269  16.0118  16.1850
    16.2589  16.3387  16.3706  16.6747  19.6985  19.8471  20.3161  20.5532
    20.9339  21.0163  21.2946  21.5716  21.6043  21.6741  21.9514  21.9843
    22.4577  22.5884  22.8899  23.4442

          k = 0.1000 0.1000 0.0000 ( 10755 PWs)   bands (ev):

   -73.3553 -73.3550 -73.3550 -73.3550 -39.5389 -39.5388 -39.5386 -39.5370
   -39.5370 -39.5364 -39.5364 -39.5364 -39.2879 -39.2874 -39.2874 -39.2874
    -4.0468  -2.0638  -2.0630  -1.9759   0.5524   0.5897   0.6110   1.8798
     6.0639   6.0750   6.1916   6.8373   7.0139   7.1397   7.3852   7.7509
     7.7847   8.2416   8.3489   8.4967   9.0230   9.0907   9.2149   9.3325
     9.4329  10.2121  10.3708  10.5606  11.8791  11.8984  11.9630  12.3483
    12.3983  12.4917  12.5088  12.5440  12.5675  12.5697  12.5746  12.8365
    13.7123  14.4375  14.4591  14.4860  15.7957  15.9668  16.0560  16.2065
    16.2821  16.3325  16.4984  16.7255  19.7210  19.8535  20.1951  20.7743
    21.0963  21.1358  21.4454  21.6186  21.6479  21.6886  21.8970  22.0317
    22.4631  22.4813  22.7162  23.4991

          k = 0.0750 0.0750 0.0000 ( 10759 PWs)   bands (ev):

   -73.3554 -73.3550 -73.3550 -73.3550 -39.5389 -39.5388 -39.5387 -39.5370
   -39.5370 -39.5364 -39.5364 -39.5364 -39.2879 -39.2874 -39.2874 -39.2874
    -4.0795  -2.0345  -2.0340  -1.9834   0.5500   0.5725   0.5844   1.9355
     6.1308   6.1399   6.2092   6.8787   6.9950   7.0735   7.4931   7.7582
     7.8508   8.1376   8.2323   8.3464   9.0422   9.1042   9.1567   9.3508
     9.4306  10.2404  10.3477  10.4569  11.8568  11.8674  11.9084  12.3744
    12.4027  12.5175  12.5267  12.5479  12.5630  12.5631  12.5670  12.8317
    13.6289  14.4489  14.4599  14.4760  15.9081  16.0086  16.0799  16.2233
    16.2823  16.3131  16.6350  16.7751  19.7506  19.8444  20.0551  21.0271
    21.2645  21.2804  21.4592  21.5492  21.6336  21.8246  22.0024  22.0678
    22.3812  22.4625  22.5479  23.5596

          k = 0.0500 0.0500 0.0000 ( 10775 PWs)   bands (ev):

   -73.3554 -73.3550 -73.3550 -73.3550 -39.5389 -39.5388 -39.5388 -39.5371
   -39.5370 -39.5364 -39.5364 -39.5364 -39.2880 -39.2875 -39.2874 -39.2874
    -4.1030  -2.0125  -2.0122  -1.9892   0.5483   0.5588   0.5641   1.9765
     6.1855   6.1904   6.2229   6.9223   6.9816   7.0192   7.6105   7.7620
     7.9262   8.0498   8.1128   8.1947   9.0624   9.0956   9.1150   9.3952
     9.4382  10.2647  10.3196  10.3695  11.8399  11.8445  11.8642  12.3933
    12.4060  12.5357  12.5393  12.5493  12.5608  12.5612  12.5625  12.8280
    13.5618  14.4580  14.4626  14.4700  16.0030  16.0500  16.0927  16.2353
    16.2718  16.2856  16.7500  16.8167  19.7820  19.8310  19.9311  21.2882
    21.3072  21.4281  21.4338  21.6071  21.6251  21.9396  22.0511  22.0817
    22.3363  22.4018  22.4518  23.6156

          k = 0.0250 0.0250 0.0000 ( 10807 PWs)   bands (ev):

   -73.3554 -73.3550 -73.3550 -73.3550 -39.5390 -39.5390 -39.5389 -39.5372
   -39.5371 -39.5365 -39.5364 -39.5364 -39.2881 -39.2875 -39.2875 -39.2875
    -4.1171  -1.9988  -1.9987  -1.9929   0.5473   0.5500   0.5513   2.0017
     6.2217   6.2230   6.2314   6.9570   6.9733   6.9831   7.7345   7.7943
     7.9588   8.0030   8.0060   8.0480   9.0767   9.0856   9.0901   9.4355
     9.4473  10.2813  10.2963  10.3092  11.8293  11.8304  11.8355  12.4048
    12.4080  12.5456  12.5462  12.5487  12.5612  12.5613  12.5613  12.8257
    13.5182  14.4638  14.4649  14.4668  16.0725  16.0852  16.0989  16.2424
    16.2551  16.2580  16.8269  16.8443  19.8069  19.8205  19.8466  21.2040
    21.5214  21.5574  21.5894  21.6205  21.6387  21.9724  21.9994  22.0258
    22.3638  22.3693  22.4071  23.6564

          k = 0.0000 0.0000 0.0000 ( 10827 PWs)   bands (ev):

   -73.3554 -73.3550 -73.3550 -73.3550 -39.5390 -39.5390 -39.5389 -39.5372
   -39.5371 -39.5366 -39.5366 -39.5365 -39.2881 -39.2876 -39.2876 -39.2876
    -4.1218  -1.9942  -1.9942  -1.9942   0.5470   0.5470   0.5470   2.0101
     6.2343   6.2343   6.2343   6.9704   6.9704   6.9704   7.8253   7.8253
     7.9494   7.9494   7.9494   8.0060   9.0818   9.0818   9.0818   9.4513
     9.4513  10.2872  10.2872  10.2872  11.8257  11.8257  11.8257  12.4087
    12.4087  12.5482  12.5483  12.5483  12.5616  12.5616  12.5617  12.8250
    13.5030  14.4657  14.4658  14.4658  16.1007  16.1007  16.1007  16.2447
    16.2447  16.2448  16.8538  16.8539  19.8166  19.8166  19.8166  21.1674
    21.6190  21.6190  21.6191  21.6714  21.6715  21.9555  21.9555  21.9555
    22.3837  22.3838  22.3838  23.6711

     Writing all to output data dir ./work/pwscf.save/

     init_run     :      1.19s CPU      1.31s WALL (       1 calls)
     electrons    :    115.65s CPU    119.87s WALL (       1 calls)

     Called by init_run:
     wfcinit      :      0.00s CPU      0.00s WALL (       1 calls)
     wfcinit:atom :      0.07s CPU      0.07s WALL (      81 calls)
     wfcinit:wfcr :      5.64s CPU      5.96s WALL (      81 calls)
     potinit      :      0.46s CPU      0.53s WALL (       1 calls)
     hinit0       :      0.44s CPU      0.44s WALL (       1 calls)

     Called by electrons:
     c_bands      :    115.64s CPU    119.86s WALL (       1 calls)
     v_of_rho     :      0.02s CPU      0.02s WALL (       1 calls)
     v_h          :      0.00s CPU      0.00s WALL (       1 calls)
     v_xc         :      0.02s CPU      0.02s WALL (       1 calls)
     newd         :      0.07s CPU      0.11s WALL (       1 calls)
     PAW_pot      :      0.17s CPU      0.19s WALL (       1 calls)

     Called by c_bands:
     init_us_2    :      0.06s CPU      0.07s WALL (      81 calls)
     init_us_2:cp :      0.06s CPU      0.07s WALL (      81 calls)
     cegterg      :    109.15s CPU    112.52s WALL (     183 calls)

     Called by sum_band:

     Called by *egterg:
     cdiaghg      :     17.43s CPU     17.53s WALL (    2846 calls)
     cegterg:over :     11.62s CPU     11.85s WALL (    2765 calls)
     cegterg:upda :      4.38s CPU      4.42s WALL (    2765 calls)
     cegterg:last :      9.97s CPU      9.97s WALL (    1007 calls)
     h_psi        :     56.87s CPU     59.96s WALL (    3029 calls)
     s_psi        :      5.68s CPU      5.80s WALL (    3029 calls)
     g_psi        :      0.32s CPU      0.32s WALL (    2765 calls)

     Called by h_psi:
     h_psi:calbec :      8.73s CPU      9.07s WALL (    3029 calls)
     vloc_psi     :     41.35s CPU     43.98s WALL (    3029 calls)
     add_vuspsi   :      6.40s CPU      6.51s WALL (    3029 calls)

     General routines
     calbec       :      8.72s CPU      9.07s WALL (    3029 calls)
     fft          :      0.37s CPU      0.38s WALL (      13 calls)
     ffts         :      0.27s CPU      0.27s WALL (       1 calls)
     fftw         :     38.37s CPU     40.81s WALL (  179086 calls)
     interpolate  :      0.27s CPU      0.27s WALL (       1 calls)

     Parallel routines

     PAW routines
     PAW_pot      :      0.17s CPU      0.19s WALL (       1 calls)

     PWSCF        :   1m57.75s CPU   2m11.73s WALL


   This run was terminated on:  17:34:44  21Sep2023            

=------------------------------------------------------------------------------=
   JOB DONE.
=------------------------------------------------------------------------------=
