
     Program BANDS v.7.1 starts on 22Sep2023 at 10:37:13 

     This program is part of the open-source Quantum ESPRESSO suite
     for quantum simulation of materials; please cite
         "P. Giannozzi et al., J. Phys.:Condens. Matter 21 395502 (2009);
         "P. Giannozzi et al., J. Phys.:Condens. Matter 29 465901 (2017);
         "P. Giannozzi et al., J. Chem. Phys. 152 154105 (2020);
          URL http://www.quantum-espresso.org", 
     in publications or presentations arising from this work. More details at
     http://www.quantum-espresso.org/quote

     Parallel version (MPI & OpenMP), running on      10 processor cores
     Number of MPI processes:                10
     Threads/MPI process:                     1

     MPI processes distributed on     1 nodes
     R & G space division:  proc/nbgrp/npool/nimage =      10
     11759 MiB available memory on the printing compute node when the environment starts


     Reading xml data from directory:

     ./work/pwscf.save/
     file S.pbesol-n-kjpaw_psl.1.0.0.UPF: wavefunction(s)  3S 3P renormalized
     file Fe.pbesol-spn-kjpaw_psl.1.0.0.UPF: wavefunction(s)  3P 3D renormalized

     IMPORTANT: XC functional enforced from input :
     Exchange-correlation= PBESOL
                           (   1   4  10   8   0   0   0)
     Any further DFT definition will be discarded
     Please, verify this is what you really want


     Parallelization info
     --------------------
     sticks:   dense  smooth     PW     G-vecs:    dense   smooth      PW
     Min         411     236     67                19790     8572    1313
     Max         413     237     68                19791     8575    1314
     Sum        4117    2361    673               197909    85735   13133

     Using Slab Decomposition

     Reading collected, re-writing distributed wavefunctions
     high-symmetry point:  0.5000 0.2500 0.7500   x coordinate   0.0000
     high-symmetry point:  0.0000 0.5000 0.0000   x coordinate   0.9354
     high-symmetry point:  0.0000 0.0000 0.0000   x coordinate   1.4354
     high-symmetry point:  0.0000 0.5000 0.5000   x coordinate   2.1425
     high-symmetry point:  0.7500 0.5000 0.2500   x coordinate   2.9331
     high-symmetry point:  0.7500 0.3750 0.3750   x coordinate   3.1099

     Plottable bands (eV) written to file bands.out.gnu
     Bands written to file bands.out

 **************************************************************************

                    xk=(   0.50000,   0.25000,   0.75000  )

     zone border point and non-symmorphic group 
     symmetry decomposition not available

 **************************************************************************

 **************************************************************************

                    xk=(   0.47500,   0.26250,   0.71250  )

     point group C_1 (1)    
     there are  1 classes
     the character table:

       E    
A      1.00

     the symmetry operations in each class and the name of the first element:

     E        1
                                                                 

     Band symmetry, C_1 (1)     point group:

     e(  1 -  4) =    -73.40766  eV     4   -->   4 A              
     e(  5 -  5) =    -39.71493  eV     1   --> A              
     e(  6 -  6) =    -39.71482  eV     1   --> A              
     e(  7 -  8) =    -39.71449  eV     2   -->   2 A              
     e(  9 - 10) =    -39.71298  eV     2   -->   2 A              
     e( 11 - 12) =    -39.71260  eV     2   -->   2 A              
     e( 13 - 16) =    -39.46483  eV     4   -->   4 A              
     e( 17 - 17) =     -2.95021  eV     1   --> A              
     e( 18 - 18) =     -2.81996  eV     1   --> A              
     e( 19 - 19) =     -2.25205  eV     1   --> A              
     e( 20 - 20) =     -2.24275  eV     1   --> A              
     e( 21 - 21) =      0.37326  eV     1   --> A              
     e( 22 - 22) =      0.38982  eV     1   --> A              
     e( 23 - 23) =      0.66709  eV     1   --> A              
     e( 24 - 24) =      0.69054  eV     1   --> A              
     e( 25 - 25) =      5.49768  eV     1   --> A              
     e( 26 - 26) =      5.56043  eV     1   --> A              
     e( 27 - 27) =      6.29985  eV     1   --> A              
     e( 28 - 28) =      6.35925  eV     1   --> A              
     e( 29 - 29) =      6.61189  eV     1   --> A              
     e( 30 - 30) =      6.66336  eV     1   --> A              
     e( 31 - 31) =      7.87415  eV     1   --> A              
     e( 32 - 32) =      7.95519  eV     1   --> A              
     e( 33 - 33) =      8.27084  eV     1   --> A              
     e( 34 - 34) =      8.42042  eV     1   --> A              
     e( 35 - 35) =      8.66618  eV     1   --> A              
     e( 36 - 36) =      8.70052  eV     1   --> A              
     e( 37 - 37) =      9.43659  eV     1   --> A              
     e( 38 - 38) =      9.48476  eV     1   --> A              
     e( 39 - 39) =      9.91923  eV     1   --> A              
     e( 40 - 40) =      9.95983  eV     1   --> A              
     e( 41 - 41) =     10.08748  eV     1   --> A              
     e( 42 - 42) =     10.09195  eV     1   --> A              
     e( 43 - 43) =     10.58753  eV     1   --> A              
     e( 44 - 44) =     10.71659  eV     1   --> A              
     e( 45 - 45) =     11.71707  eV     1   --> A              
     e( 46 - 46) =     11.74459  eV     1   --> A              
     e( 47 - 47) =     11.84116  eV     1   --> A              
     e( 48 - 48) =     11.89196  eV     1   --> A              
     e( 49 - 49) =     11.93406  eV     1   --> A              
     e( 50 - 50) =     11.95160  eV     1   --> A              
     e( 51 - 51) =     12.13938  eV     1   --> A              
     e( 52 - 52) =     12.17055  eV     1   --> A              
     e( 53 - 53) =     12.35739  eV     1   --> A              
     e( 54 - 54) =     12.39345  eV     1   --> A              
     e( 55 - 55) =     12.51353  eV     1   --> A              
     e( 56 - 56) =     12.53064  eV     1   --> A              
     e( 57 - 57) =     14.12077  eV     1   --> A              
     e( 58 - 58) =     14.20867  eV     1   --> A              
     e( 59 - 59) =     14.58132  eV     1   --> A              
     e( 60 - 60) =     14.60590  eV     1   --> A              
     e( 61 - 61) =     14.73956  eV     1   --> A              
     e( 62 - 62) =     14.75679  eV     1   --> A              
     e( 63 - 63) =     15.18395  eV     1   --> A              
     e( 64 - 64) =     15.21088  eV     1   --> A              
     e( 65 - 65) =     15.65901  eV     1   --> A              
     e( 66 - 66) =     15.69772  eV     1   --> A              
     e( 67 - 67) =     16.02466  eV     1   --> A              
     e( 68 - 68) =     16.06091  eV     1   --> A              
     e( 69 - 69) =     19.09521  eV     1   --> A              
     e( 70 - 70) =     19.14807  eV     1   --> A              
     e( 71 - 71) =     19.55031  eV     1   --> A              
     e( 72 - 72) =     19.73653  eV     1   --> A              
     e( 73 - 73) =     19.92506  eV     1   --> A              
     e( 74 - 74) =     20.08962  eV     1   --> A              
     e( 75 - 75) =     20.88071  eV     1   --> A              
     e( 76 - 76) =     20.96036  eV     1   --> A              
     e( 77 - 77) =     21.00284  eV     1   --> A              
     e( 78 - 78) =     21.15266  eV     1   --> A              
     e( 79 - 79) =     21.66142  eV     1   --> A              
     e( 80 - 80) =     21.70488  eV     1   --> A              
     e( 81 - 81) =     22.21042  eV     1   --> A              
     e( 82 - 82) =     22.23836  eV     1   --> A              
     e( 83 - 83) =     22.73516  eV     1   --> A              
     e( 84 - 84) =     22.79048  eV     1   --> A              

 **************************************************************************

 **************************************************************************

                    xk=(   0.45000,   0.27500,   0.67500  )

     Band symmetry, C_1 (1)     point group:

     e(  1 -  4) =    -73.40764  eV     4   -->   4 A              
     e(  5 -  5) =    -39.71502  eV     1   --> A              
     e(  6 -  6) =    -39.71482  eV     1   --> A              
     e(  7 -  7) =    -39.71461  eV     1   --> A              
     e(  8 -  8) =    -39.71447  eV     1   --> A              
     e(  9 - 10) =    -39.71290  eV     2   -->   2 A              
     e( 11 - 12) =    -39.71255  eV     2   -->   2 A              
     e( 13 - 16) =    -39.46484  eV     4   -->   4 A              
     e( 17 - 17) =     -2.93413  eV     1   --> A              
     e( 18 - 18) =     -2.68909  eV     1   --> A              
     e( 19 - 19) =     -2.31013  eV     1   --> A              
     e( 20 - 20) =     -2.27334  eV     1   --> A              
     e( 21 - 21) =      0.33321  eV     1   --> A              
     e( 22 - 22) =      0.36458  eV     1   --> A              
     e( 23 - 23) =      0.58385  eV     1   --> A              
     e( 24 - 24) =      0.64226  eV     1   --> A              
     e( 25 - 25) =      5.52242  eV     1   --> A              
     e( 26 - 26) =      5.66945  eV     1   --> A              
     e( 27 - 27) =      6.19686  eV     1   --> A              
     e( 28 - 28) =      6.34311  eV     1   --> A              
     e( 29 - 29) =      6.69569  eV     1   --> A              
     e( 30 - 30) =      6.84592  eV     1   --> A              
     e( 31 - 31) =      7.77948  eV     1   --> A              
     e( 32 - 32) =      7.97898  eV     1   --> A              
     e( 33 - 33) =      8.21433  eV     1   --> A              
     e( 34 - 34) =      8.43969  eV     1   --> A              
     e( 35 - 35) =      8.62360  eV     1   --> A              
     e( 36 - 36) =      8.67252  eV     1   --> A              
     e( 37 - 37) =      9.52252  eV     1   --> A              
     e( 38 - 38) =      9.60107  eV     1   --> A              
     e( 39 - 39) =      9.93174  eV     1   --> A              
     e( 40 - 40) =      9.97476  eV     1   --> A              
     e( 41 - 41) =     10.11131  eV     1   --> A              
     e( 42 - 42) =     10.21674  eV     1   --> A              
     e( 43 - 43) =     10.54176  eV     1   --> A              
     e( 44 - 44) =     10.77669  eV     1   --> A              
     e( 45 - 45) =     11.67039  eV     1   --> A              
     e( 46 - 46) =     11.72275  eV     1   --> A              
     e( 47 - 47) =     11.81795  eV     1   --> A              
     e( 48 - 48) =     11.86417  eV     1   --> A              
     e( 49 - 49) =     11.89327  eV     1   --> A              
     e( 50 - 50) =     11.95104  eV     1   --> A              
     e( 51 - 51) =     12.10877  eV     1   --> A              
     e( 52 - 52) =     12.16366  eV     1   --> A              
     e( 53 - 53) =     12.31503  eV     1   --> A              
     e( 54 - 54) =     12.39654  eV     1   --> A              
     e( 55 - 55) =     12.47472  eV     1   --> A              
     e( 56 - 56) =     12.50864  eV     1   --> A              
     e( 57 - 57) =     14.08708  eV     1   --> A              
     e( 58 - 58) =     14.25121  eV     1   --> A              
     e( 59 - 59) =     14.53643  eV     1   --> A              
     e( 60 - 60) =     14.56412  eV     1   --> A              
     e( 61 - 61) =     14.72012  eV     1   --> A              
     e( 62 - 62) =     14.78175  eV     1   --> A              
     e( 63 - 63) =     15.16165  eV     1   --> A              
     e( 64 - 64) =     15.21499  eV     1   --> A              
     e( 65 - 65) =     15.65554  eV     1   --> A              
     e( 66 - 66) =     15.72499  eV     1   --> A              
     e( 67 - 67) =     16.01647  eV     1   --> A              
     e( 68 - 68) =     16.07834  eV     1   --> A              
     e( 69 - 69) =     19.06900  eV     1   --> A              
     e( 70 - 70) =     19.14663  eV     1   --> A              
     e( 71 - 71) =     19.48080  eV     1   --> A              
     e( 72 - 72) =     19.90849  eV     1   --> A              
     e( 73 - 73) =     20.01286  eV     1   --> A              
     e( 74 - 74) =     20.36615  eV     1   --> A              
     e( 75 - 75) =     20.71801  eV     1   --> A              
     e( 76 - 76) =     20.84563  eV     1   --> A              
     e( 77 - 77) =     21.07946  eV     1   --> A              
     e( 78 - 78) =     21.13866  eV     1   --> A              
     e( 79 - 79) =     21.44412  eV     1   --> A              
     e( 80 - 80) =     21.68402  eV     1   --> A              
     e( 81 - 81) =     22.15007  eV     1   --> A              
     e( 82 - 82) =     22.21070  eV     1   --> A              
     e( 83 - 83) =     22.56105  eV     1   --> A              
     e( 84 - 84) =     22.67021  eV     1   --> A              

 **************************************************************************

 **************************************************************************

                    xk=(   0.42500,   0.28750,   0.63750  )

     Band symmetry, C_1 (1)     point group:

     e(  1 -  4) =    -73.40762  eV     4   -->   4 A              
     e(  5 -  5) =    -39.71502  eV     1   --> A              
     e(  6 -  6) =    -39.71477  eV     1   --> A              
     e(  7 -  7) =    -39.71465  eV     1   --> A              
     e(  8 -  8) =    -39.71448  eV     1   --> A              
     e(  9 - 10) =    -39.71280  eV     2   -->   2 A              
     e( 11 - 12) =    -39.71251  eV     2   -->   2 A              
     e( 13 - 16) =    -39.46480  eV     4   -->   4 A              
     e( 17 - 17) =     -2.90686  eV     1   --> A              
     e( 18 - 18) =     -2.56811  eV     1   --> A              
     e( 19 - 19) =     -2.38133  eV     1   --> A              
     e( 20 - 20) =     -2.29758  eV     1   --> A              
     e( 21 - 21) =      0.30281  eV     1   --> A              
     e( 22 - 22) =      0.34574  eV     1   --> A              
     e( 23 - 23) =      0.50748  eV     1   --> A              
     e( 24 - 24) =      0.59985  eV     1   --> A              
     e( 25 - 25) =      5.55107  eV     1   --> A              
     e( 26 - 26) =      5.79172  eV     1   --> A              
     e( 27 - 27) =      6.09775  eV     1   --> A              
     e( 28 - 28) =      6.32788  eV     1   --> A              
     e( 29 - 29) =      6.76729  eV     1   --> A              
     e( 30 - 30) =      7.05672  eV     1   --> A              
     e( 31 - 31) =      7.59588  eV     1   --> A              
     e( 32 - 32) =      7.98566  eV     1   --> A              
     e( 33 - 33) =      8.22679  eV     1   --> A              
     e( 34 - 34) =      8.46072  eV     1   --> A              
     e( 35 - 35) =      8.57505  eV     1   --> A              
     e( 36 - 36) =      8.60884  eV     1   --> A              
     e( 37 - 37) =      9.62236  eV     1   --> A              
     e( 38 - 38) =      9.72658  eV     1   --> A              
     e( 39 - 39) =      9.89543  eV     1   --> A              
     e( 40 - 40) =     10.01799  eV     1   --> A              
     e( 41 - 41) =     10.14144  eV     1   --> A              
     e( 42 - 42) =     10.33574  eV     1   --> A              
     e( 43 - 43) =     10.49792  eV     1   --> A              
     e( 44 - 44) =     10.80379  eV     1   --> A              
     e( 45 - 45) =     11.62445  eV     1   --> A              
     e( 46 - 46) =     11.71337  eV     1   --> A              
     e( 47 - 47) =     11.80938  eV     1   --> A              
     e( 48 - 48) =     11.83261  eV     1   --> A              
     e( 49 - 49) =     11.86074  eV     1   --> A              
     e( 50 - 50) =     11.96164  eV     1   --> A              
     e( 51 - 51) =     12.06706  eV     1   --> A              
     e( 52 - 52) =     12.14062  eV     1   --> A              
     e( 53 - 53) =     12.27765  eV     1   --> A              
     e( 54 - 54) =     12.40570  eV     1   --> A              
     e( 55 - 55) =     12.43212  eV     1   --> A              
     e( 56 - 56) =     12.48234  eV     1   --> A              
     e( 57 - 57) =     14.06415  eV     1   --> A              
     e( 58 - 58) =     14.28768  eV     1   --> A              
     e( 59 - 59) =     14.45828  eV     1   --> A              
     e( 60 - 60) =     14.50031  eV     1   --> A              
     e( 61 - 61) =     14.75394  eV     1   --> A              
     e( 62 - 62) =     14.82480  eV     1   --> A              
     e( 63 - 63) =     15.14484  eV     1   --> A              
     e( 64 - 64) =     15.20865  eV     1   --> A              
     e( 65 - 65) =     15.65747  eV     1   --> A              
     e( 66 - 66) =     15.75242  eV     1   --> A              
     e( 67 - 67) =     16.01420  eV     1   --> A              
     e( 68 - 68) =     16.08637  eV     1   --> A              
     e( 69 - 69) =     19.07561  eV     1   --> A              
     e( 70 - 70) =     19.18149  eV     1   --> A              
     e( 71 - 71) =     19.40628  eV     1   --> A              
     e( 72 - 72) =     20.07818  eV     1   --> A              
     e( 73 - 73) =     20.12592  eV     1   --> A              
     e( 74 - 74) =     20.53076  eV     1   --> A              
     e( 75 - 75) =     20.63626  eV     1   --> A              
     e( 76 - 76) =     20.75433  eV     1   --> A              
     e( 77 - 77) =     21.06657  eV     1   --> A              
     e( 78 - 78) =     21.19284  eV     1   --> A              
     e( 79 - 79) =     21.28247  eV     1   --> A              
     e( 80 - 80) =     21.74271  eV     1   --> A              
     e( 81 - 81) =     22.06233  eV     1   --> A              
     e( 82 - 82) =     22.08132  eV     1   --> A              
     e( 83 - 83) =     22.41307  eV     1   --> A              
     e( 84 - 84) =     22.62792  eV     1   --> A              

 **************************************************************************

 **************************************************************************

                    xk=(   0.40000,   0.30000,   0.60000  )

     Band symmetry, C_1 (1)     point group:

     e(  1 -  4) =    -73.40761  eV     4   -->   4 A              
     e(  5 -  5) =    -39.71503  eV     1   --> A              
     e(  6 -  7) =    -39.71480  eV     2   -->   2 A              
     e(  8 -  8) =    -39.71455  eV     1   --> A              
     e(  9 - 10) =    -39.71277  eV     2   -->   2 A              
     e( 11 - 12) =    -39.71250  eV     2   -->   2 A              
     e( 13 - 16) =    -39.46482  eV     4   -->   4 A              
     e( 17 - 17) =     -2.86891  eV     1   --> A              
     e( 18 - 18) =     -2.46786  eV     1   --> A              
     e( 19 - 19) =     -2.46038  eV     1   --> A              
     e( 20 - 20) =     -2.31471  eV     1   --> A              
     e( 21 - 21) =      0.28238  eV     1   --> A              
     e( 22 - 22) =      0.32745  eV     1   --> A              
     e( 23 - 23) =      0.45663  eV     1   --> A              
     e( 24 - 24) =      0.56307  eV     1   --> A              
     e( 25 - 25) =      5.58490  eV     1   --> A              
     e( 26 - 26) =      5.88071  eV     1   --> A              
     e( 27 - 27) =      6.04978  eV     1   --> A              
     e( 28 - 28) =      6.31597  eV     1   --> A              
     e( 29 - 29) =      6.82093  eV     1   --> A              
     e( 30 - 30) =      7.22341  eV     1   --> A              
     e( 31 - 31) =      7.43857  eV     1   --> A              
     e( 32 - 32) =      7.99367  eV     1   --> A              
     e( 33 - 33) =      8.22350  eV     1   --> A              
     e( 34 - 34) =      8.45402  eV     1   --> A              
     e( 35 - 35) =      8.54071  eV     1   --> A              
     e( 36 - 36) =      8.55436  eV     1   --> A              
     e( 37 - 37) =      9.71147  eV     1   --> A              
     e( 38 - 38) =      9.84769  eV     1   --> A              
     e( 39 - 39) =      9.86129  eV     1   --> A              
     e( 40 - 40) =     10.05261  eV     1   --> A              
     e( 41 - 41) =     10.18552  eV     1   --> A              
     e( 42 - 42) =     10.36968  eV     1   --> A              
     e( 43 - 43) =     10.50442  eV     1   --> A              
     e( 44 - 44) =     10.79953  eV     1   --> A              
     e( 45 - 45) =     11.60323  eV     1   --> A              
     e( 46 - 46) =     11.70088  eV     1   --> A              
     e( 47 - 47) =     11.78813  eV     1   --> A              
     e( 48 - 48) =     11.81098  eV     1   --> A              
     e( 49 - 49) =     11.85680  eV     1   --> A              
     e( 50 - 50) =     11.97396  eV     1   --> A              
     e( 51 - 51) =     12.01805  eV     1   --> A              
     e( 52 - 52) =     12.10343  eV     1   --> A              
     e( 53 - 53) =     12.25782  eV     1   --> A              
     e( 54 - 54) =     12.39098  eV     1   --> A              
     e( 55 - 55) =     12.41822  eV     1   --> A              
     e( 56 - 56) =     12.45985  eV     1   --> A              
     e( 57 - 57) =     14.05827  eV     1   --> A              
     e( 58 - 58) =     14.31987  eV     1   --> A              
     e( 59 - 59) =     14.36556  eV     1   --> A              
     e( 60 - 60) =     14.44920  eV     1   --> A              
     e( 61 - 61) =     14.80290  eV     1   --> A              
     e( 62 - 62) =     14.85873  eV     1   --> A              
     e( 63 - 63) =     15.13898  eV     1   --> A              
     e( 64 - 64) =     15.18769  eV     1   --> A              
     e( 65 - 65) =     15.67628  eV     1   --> A              
     e( 66 - 66) =     15.77717  eV     1   --> A              
     e( 67 - 67) =     16.01554  eV     1   --> A              
     e( 68 - 68) =     16.07997  eV     1   --> A              
     e( 69 - 69) =     19.09777  eV     1   --> A              
     e( 70 - 70) =     19.26947  eV     1   --> A              
     e( 71 - 71) =     19.33529  eV     1   --> A              
     e( 72 - 72) =     20.14898  eV     1   --> A              
     e( 73 - 73) =     20.22133  eV     1   --> A              
     e( 74 - 74) =     20.41673  eV     1   --> A              
     e( 75 - 75) =     20.58275  eV     1   --> A              
     e( 76 - 76) =     20.90052  eV     1   --> A              
     e( 77 - 77) =     21.05043  eV     1   --> A              
     e( 78 - 78) =     21.18010  eV     1   --> A              
     e( 79 - 79) =     21.37362  eV     1   --> A              
     e( 80 - 80) =     21.78591  eV     1   --> A              
     e( 81 - 81) =     21.93771  eV     1   --> A              
     e( 82 - 82) =     21.95031  eV     1   --> A              
     e( 83 - 83) =     22.30286  eV     1   --> A              
     e( 84 - 84) =     22.60906  eV     1   --> A              

 **************************************************************************

 **************************************************************************

                    xk=(   0.37500,   0.31250,   0.56250  )

     Band symmetry, C_1 (1)     point group:

     e(  1 -  4) =    -73.40762  eV     4   -->   4 A              
     e(  5 -  5) =    -39.71506  eV     1   --> A              
     e(  6 -  6) =    -39.71488  eV     1   --> A              
     e(  7 -  7) =    -39.71474  eV     1   --> A              
     e(  8 -  8) =    -39.71462  eV     1   --> A              
     e(  9 - 10) =    -39.71277  eV     2   -->   2 A              
     e( 11 - 12) =    -39.71249  eV     2   -->   2 A              
     e( 13 - 16) =    -39.46484  eV     4   -->   4 A              
     e( 17 - 17) =     -2.82100  eV     1   --> A              
     e( 18 - 18) =     -2.55647  eV     1   --> A              
     e( 19 - 19) =     -2.38418  eV     1   --> A              
     e( 20 - 20) =     -2.32423  eV     1   --> A              
     e( 21 - 21) =      0.27196  eV     1   --> A              
     e( 22 - 22) =      0.30331  eV     1   --> A              
     e( 23 - 23) =      0.44776  eV     1   --> A              
     e( 24 - 24) =      0.53257  eV     1   --> A              
     e( 25 - 25) =      5.62373  eV     1   --> A              
     e( 26 - 26) =      5.83785  eV     1   --> A              
     e( 27 - 27) =      6.14182  eV     1   --> A              
     e( 28 - 28) =      6.30861  eV     1   --> A              
     e( 29 - 29) =      6.85184  eV     1   --> A              
     e( 30 - 30) =      7.10038  eV     1   --> A              
     e( 31 - 31) =      7.57501  eV     1   --> A              
     e( 32 - 32) =      7.99652  eV     1   --> A              
     e( 33 - 33) =      8.19001  eV     1   --> A              
     e( 34 - 34) =      8.36132  eV     1   --> A              
     e( 35 - 35) =      8.54832  eV     1   --> A              
     e( 36 - 36) =      8.56222  eV     1   --> A              
     e( 37 - 37) =      9.76001  eV     1   --> A              
     e( 38 - 38) =      9.81234  eV     1   --> A              
     e( 39 - 39) =      9.98275  eV     1   --> A              
     e( 40 - 40) =     10.08774  eV     1   --> A              
     e( 41 - 41) =     10.21730  eV     1   --> A              
     e( 42 - 42) =     10.31270  eV     1   --> A              
     e( 43 - 43) =     10.56391  eV     1   --> A              
     e( 44 - 44) =     10.77118  eV     1   --> A              
     e( 45 - 45) =     11.60987  eV     1   --> A              
     e( 46 - 46) =     11.68040  eV     1   --> A              
     e( 47 - 47) =     11.77307  eV     1   --> A              
     e( 48 - 48) =     11.80262  eV     1   --> A              
     e( 49 - 49) =     11.86167  eV     1   --> A              
     e( 50 - 50) =     11.93606  eV     1   --> A              
     e( 51 - 51) =     12.01876  eV     1   --> A              
     e( 52 - 52) =     12.06594  eV     1   --> A              
     e( 53 - 53) =     12.26270  eV     1   --> A              
     e( 54 - 54) =     12.35752  eV     1   --> A              
     e( 55 - 55) =     12.42756  eV     1   --> A              
     e( 56 - 56) =     12.44751  eV     1   --> A              
     e( 57 - 57) =     14.07289  eV     1   --> A              
     e( 58 - 58) =     14.26884  eV     1   --> A              
     e( 59 - 59) =     14.35705  eV     1   --> A              
     e( 60 - 60) =     14.41875  eV     1   --> A              
     e( 61 - 61) =     14.83988  eV     1   --> A              
     e( 62 - 62) =     14.87793  eV     1   --> A              
     e( 63 - 63) =     15.14246  eV     1   --> A              
     e( 64 - 64) =     15.16276  eV     1   --> A              
     e( 65 - 65) =     15.71011  eV     1   --> A              
     e( 66 - 66) =     15.79027  eV     1   --> A              
     e( 67 - 67) =     16.01967  eV     1   --> A              
     e( 68 - 68) =     16.06185  eV     1   --> A              
     e( 69 - 69) =     19.12330  eV     1   --> A              
     e( 70 - 70) =     19.26507  eV     1   --> A              
     e( 71 - 71) =     19.40732  eV     1   --> A              
     e( 72 - 72) =     20.04878  eV     1   --> A              
     e( 73 - 73) =     20.18148  eV     1   --> A              
     e( 74 - 74) =     20.41679  eV     1   --> A              
     e( 75 - 75) =     20.64921  eV     1   --> A              
     e( 76 - 76) =     20.89045  eV     1   --> A              
     e( 77 - 77) =     21.02069  eV     1   --> A              
     e( 78 - 78) =     21.30080  eV     1   --> A              
     e( 79 - 79) =     21.52626  eV     1   --> A              
     e( 80 - 80) =     21.77413  eV     1   --> A              
     e( 81 - 81) =     21.83434  eV     1   --> A              
     e( 82 - 82) =     21.85859  eV     1   --> A              
     e( 83 - 83) =     22.29730  eV     1   --> A              
     e( 84 - 84) =     22.53706  eV     1   --> A              

 **************************************************************************

 **************************************************************************

                    xk=(   0.35000,   0.32500,   0.52500  )

     Band symmetry, C_1 (1)     point group:

     e(  1 -  4) =    -73.40762  eV     4   -->   4 A              
     e(  5 -  6) =    -39.71502  eV     2   -->   2 A              
     e(  7 -  8) =    -39.71470  eV     2   -->   2 A              
     e(  9 - 10) =    -39.71272  eV     2   -->   2 A              
     e( 11 - 12) =    -39.71249  eV     2   -->   2 A              
     e( 13 - 16) =    -39.46482  eV     4   -->   4 A              
     e( 17 - 17) =     -2.76405  eV     1   --> A              
     e( 18 - 18) =     -2.65453  eV     1   --> A              
     e( 19 - 19) =     -2.33573  eV     1   --> A              
     e( 20 - 20) =     -2.32589  eV     1   --> A              
     e( 21 - 21) =      0.27319  eV     1   --> A              
     e( 22 - 22) =      0.28557  eV     1   --> A              
     e( 23 - 23) =      0.47268  eV     1   --> A              
     e( 24 - 24) =      0.50995  eV     1   --> A              
     e( 25 - 25) =      5.66651  eV     1   --> A              
     e( 26 - 26) =      5.75355  eV     1   --> A              
     e( 27 - 27) =      6.25752  eV     1   --> A              
     e( 28 - 28) =      6.30550  eV     1   --> A              
     e( 29 - 29) =      6.85844  eV     1   --> A              
     e( 30 - 30) =      6.92695  eV     1   --> A              
     e( 31 - 31) =      7.78182  eV     1   --> A              
     e( 32 - 32) =      7.96036  eV     1   --> A              
     e( 33 - 33) =      8.17774  eV     1   --> A              
     e( 34 - 34) =      8.25876  eV     1   --> A              
     e( 35 - 35) =      8.57363  eV     1   --> A              
     e( 36 - 36) =      8.58084  eV     1   --> A              
     e( 37 - 37) =      9.75673  eV     1   --> A              
     e( 38 - 38) =      9.77527  eV     1   --> A              
     e( 39 - 39) =     10.09705  eV     1   --> A              
     e( 40 - 40) =     10.13309  eV     1   --> A              
     e( 41 - 41) =     10.19245  eV     1   --> A              
     e( 42 - 42) =     10.23786  eV     1   --> A              
     e( 43 - 43) =     10.62726  eV     1   --> A              
     e( 44 - 44) =     10.72059  eV     1   --> A              
     e( 45 - 45) =     11.63501  eV     1   --> A              
     e( 46 - 46) =     11.66395  eV     1   --> A              
     e( 47 - 47) =     11.77725  eV     1   --> A              
     e( 48 - 48) =     11.79758  eV     1   --> A              
     e( 49 - 49) =     11.86096  eV     1   --> A              
     e( 50 - 50) =     11.88588  eV     1   --> A              
     e( 51 - 51) =     12.04379  eV     1   --> A              
     e( 52 - 52) =     12.05196  eV     1   --> A              
     e( 53 - 53) =     12.28866  eV     1   --> A              
     e( 54 - 54) =     12.32985  eV     1   --> A              
     e( 55 - 55) =     12.43642  eV     1   --> A              
     e( 56 - 56) =     12.44504  eV     1   --> A              
     e( 57 - 57) =     14.10855  eV     1   --> A              
     e( 58 - 58) =     14.18781  eV     1   --> A              
     e( 59 - 59) =     14.39264  eV     1   --> A              
     e( 60 - 60) =     14.41081  eV     1   --> A              
     e( 61 - 61) =     14.85506  eV     1   --> A              
     e( 62 - 62) =     14.87481  eV     1   --> A              
     e( 63 - 63) =     15.14767  eV     1   --> A              
     e( 64 - 64) =     15.15399  eV     1   --> A              
     e( 65 - 65) =     15.74512  eV     1   --> A              
     e( 66 - 66) =     15.78125  eV     1   --> A              
     e( 67 - 67) =     16.02649  eV     1   --> A              
     e( 68 - 68) =     16.04220  eV     1   --> A              
     e( 69 - 69) =     19.14404  eV     1   --> A              
     e( 70 - 70) =     19.19648  eV     1   --> A              
     e( 71 - 71) =     19.57654  eV     1   --> A              
     e( 72 - 72) =     19.83779  eV     1   --> A              
     e( 73 - 73) =     20.20914  eV     1   --> A              
     e( 74 - 74) =     20.34999  eV     1   --> A              
     e( 75 - 75) =     20.79899  eV     1   --> A              
     e( 76 - 76) =     20.91914  eV     1   --> A              
     e( 77 - 77) =     21.02103  eV     1   --> A              
     e( 78 - 78) =     21.18337  eV     1   --> A              
     e( 79 - 79) =     21.65267  eV     1   --> A              
     e( 80 - 80) =     21.67671  eV     1   --> A              
     e( 81 - 81) =     21.85636  eV     1   --> A              
     e( 82 - 82) =     21.86698  eV     1   --> A              
     e( 83 - 83) =     22.39754  eV     1   --> A              
     e( 84 - 84) =     22.46159  eV     1   --> A              

 **************************************************************************

 **************************************************************************

                    xk=(   0.32500,   0.33750,   0.48750  )

     Band symmetry, C_1 (1)     point group:

     e(  1 -  4) =    -73.40762  eV     4   -->   4 A              
     e(  5 -  6) =    -39.71500  eV     2   -->   2 A              
     e(  7 -  8) =    -39.71467  eV     2   -->   2 A              
     e(  9 - 10) =    -39.71273  eV     2   -->   2 A              
     e( 11 - 12) =    -39.71247  eV     2   -->   2 A              
     e( 13 - 16) =    -39.46479  eV     4   -->   4 A              
     e( 17 - 17) =     -2.75528  eV     1   --> A              
     e( 18 - 18) =     -2.69918  eV     1   --> A              
     e( 19 - 19) =     -2.32237  eV     1   --> A              
     e( 20 - 20) =     -2.31968  eV     1   --> A              
     e( 21 - 21) =      0.28373  eV     1   --> A              
     e( 22 - 22) =      0.29039  eV     1   --> A              
     e( 23 - 23) =      0.49815  eV     1   --> A              
     e( 24 - 24) =      0.51685  eV     1   --> A              
     e( 25 - 25) =      5.66847  eV     1   --> A              
     e( 26 - 26) =      5.71146  eV     1   --> A              
     e( 27 - 27) =      6.28774  eV     1   --> A              
     e( 28 - 28) =      6.30823  eV     1   --> A              
     e( 29 - 29) =      6.83595  eV     1   --> A              
     e( 30 - 30) =      6.86000  eV     1   --> A              
     e( 31 - 31) =      7.85581  eV     1   --> A              
     e( 32 - 32) =      7.93964  eV     1   --> A              
     e( 33 - 33) =      8.19718  eV     1   --> A              
     e( 34 - 34) =      8.24206  eV     1   --> A              
     e( 35 - 35) =      8.59019  eV     1   --> A              
     e( 36 - 36) =      8.59515  eV     1   --> A              
     e( 37 - 37) =      9.72269  eV     1   --> A              
     e( 38 - 38) =      9.73543  eV     1   --> A              
     e( 39 - 39) =     10.11388  eV     1   --> A              
     e( 40 - 40) =     10.14529  eV     1   --> A              
     e( 41 - 41) =     10.15366  eV     1   --> A              
     e( 42 - 42) =     10.20939  eV     1   --> A              
     e( 43 - 43) =     10.64637  eV     1   --> A              
     e( 44 - 44) =     10.69725  eV     1   --> A              
     e( 45 - 45) =     11.65010  eV     1   --> A              
     e( 46 - 46) =     11.66495  eV     1   --> A              
     e( 47 - 47) =     11.79049  eV     1   --> A              
     e( 48 - 48) =     11.80158  eV     1   --> A              
     e( 49 - 49) =     11.86004  eV     1   --> A              
     e( 50 - 50) =     11.87387  eV     1   --> A              
     e( 51 - 51) =     12.06464  eV     1   --> A              
     e( 52 - 52) =     12.06936  eV     1   --> A              
     e( 53 - 53) =     12.30752  eV     1   --> A              
     e( 54 - 54) =     12.32900  eV     1   --> A              
     e( 55 - 55) =     12.44467  eV     1   --> A              
     e( 56 - 56) =     12.45049  eV     1   --> A              
     e( 57 - 57) =     14.12433  eV     1   --> A              
     e( 58 - 58) =     14.16365  eV     1   --> A              
     e( 59 - 59) =     14.42554  eV     1   --> A              
     e( 60 - 60) =     14.43172  eV     1   --> A              
     e( 61 - 61) =     14.84056  eV     1   --> A              
     e( 62 - 62) =     14.85283  eV     1   --> A              
     e( 63 - 63) =     15.15622  eV     1   --> A              
     e( 64 - 64) =     15.16277  eV     1   --> A              
     e( 65 - 65) =     15.74531  eV     1   --> A              
     e( 66 - 66) =     15.76343  eV     1   --> A              
     e( 67 - 67) =     16.03105  eV     1   --> A              
     e( 68 - 68) =     16.03937  eV     1   --> A              
     e( 69 - 69) =     19.13394  eV     1   --> A              
     e( 70 - 70) =     19.15712  eV     1   --> A              
     e( 71 - 71) =     19.63607  eV     1   --> A              
     e( 72 - 72) =     19.76225  eV     1   --> A              
     e( 73 - 73) =     20.24561  eV     1   --> A              
     e( 74 - 74) =     20.32902  eV     1   --> A              
     e( 75 - 75) =     20.88223  eV     1   --> A              
     e( 76 - 76) =     20.92436  eV     1   --> A              
     e( 77 - 77) =     21.00208  eV     1   --> A              
     e( 78 - 78) =     21.05755  eV     1   --> A              
     e( 79 - 79) =     21.56642  eV     1   --> A              
     e( 80 - 80) =     21.59676  eV     1   --> A              
     e( 81 - 81) =     21.98606  eV     1   --> A              
     e( 82 - 82) =     21.99306  eV     1   --> A              
     e( 83 - 83) =     22.44234  eV     1   --> A              
     e( 84 - 84) =     22.45421  eV     1   --> A              

 **************************************************************************

 **************************************************************************

                    xk=(   0.30000,   0.35000,   0.45000  )

     Band symmetry, C_1 (1)     point group:

     e(  1 -  4) =    -73.40763  eV     4   -->   4 A              
     e(  5 -  5) =    -39.71500  eV     1   --> A              
     e(  6 -  6) =    -39.71484  eV     1   --> A              
     e(  7 -  8) =    -39.71464  eV     2   -->   2 A              
     e(  9 - 10) =    -39.71278  eV     2   -->   2 A              
     e( 11 - 12) =    -39.71251  eV     2   -->   2 A              
     e( 13 - 16) =    -39.46479  eV     4   -->   4 A              
     e( 17 - 17) =     -2.85551  eV     1   --> A              
     e( 18 - 18) =     -2.62772  eV     1   --> A              
     e( 19 - 19) =     -2.34393  eV     1   --> A              
     e( 20 - 20) =     -2.30577  eV     1   --> A              
     e( 21 - 21) =      0.29536  eV     1   --> A              
     e( 22 - 22) =      0.32466  eV     1   --> A              
     e( 23 - 23) =      0.50307  eV     1   --> A              
     e( 24 - 24) =      0.57171  eV     1   --> A              
     e( 25 - 25) =      5.58876  eV     1   --> A              
     e( 26 - 26) =      5.75471  eV     1   --> A              
     e( 27 - 27) =      6.18817  eV     1   --> A              
     e( 28 - 28) =      6.32176  eV     1   --> A              
     e( 29 - 29) =      6.78929  eV     1   --> A              
     e( 30 - 30) =      6.94379  eV     1   --> A              
     e( 31 - 31) =      7.71207  eV     1   --> A              
     e( 32 - 32) =      7.99169  eV     1   --> A              
     e( 33 - 33) =      8.20175  eV     1   --> A              
     e( 34 - 34) =      8.37725  eV     1   --> A              
     e( 35 - 35) =      8.58524  eV     1   --> A              
     e( 36 - 36) =      8.60981  eV     1   --> A              
     e( 37 - 37) =      9.65234  eV     1   --> A              
     e( 38 - 38) =      9.71681  eV     1   --> A              
     e( 39 - 39) =      9.98896  eV     1   --> A              
     e( 40 - 40) =     10.05800  eV     1   --> A              
     e( 41 - 41) =     10.14978  eV     1   --> A              
     e( 42 - 42) =     10.28983  eV     1   --> A              
     e( 43 - 43) =     10.55579  eV     1   --> A              
     e( 44 - 44) =     10.76628  eV     1   --> A              
     e( 45 - 45) =     11.63511  eV     1   --> A              
     e( 46 - 46) =     11.69619  eV     1   --> A              
     e( 47 - 47) =     11.79795  eV     1   --> A              
     e( 48 - 48) =     11.82577  eV     1   --> A              
     e( 49 - 49) =     11.85662  eV     1   --> A              
     e( 50 - 50) =     11.92239  eV     1   --> A              
     e( 51 - 51) =     12.07340  eV     1   --> A              
     e( 52 - 52) =     12.11301  eV     1   --> A              
     e( 53 - 53) =     12.29011  eV     1   --> A              
     e( 54 - 54) =     12.37653  eV     1   --> A              
     e( 55 - 55) =     12.44148  eV     1   --> A              
     e( 56 - 56) =     12.47163  eV     1   --> A              
     e( 57 - 57) =     14.08159  eV     1   --> A              
     e( 58 - 58) =     14.23553  eV     1   --> A              
     e( 59 - 59) =     14.45529  eV     1   --> A              
     e( 60 - 60) =     14.47680  eV     1   --> A              
     e( 61 - 61) =     14.78373  eV     1   --> A              
     e( 62 - 62) =     14.83586  eV     1   --> A              
     e( 63 - 63) =     15.15260  eV     1   --> A              
     e( 64 - 64) =     15.19157  eV     1   --> A              
     e( 65 - 65) =     15.69028  eV     1   --> A              
     e( 66 - 66) =     15.75776  eV     1   --> A              
     e( 67 - 67) =     16.02230  eV     1   --> A              
     e( 68 - 68) =     16.06608  eV     1   --> A              
     e( 69 - 69) =     19.08835  eV     1   --> A              
     e( 70 - 70) =     19.16674  eV     1   --> A              
     e( 71 - 71) =     19.47976  eV     1   --> A              
     e( 72 - 72) =     19.95155  eV     1   --> A              
     e( 73 - 73) =     20.15440  eV     1   --> A              
     e( 74 - 74) =     20.51276  eV     1   --> A              
     e( 75 - 75) =     20.68753  eV     1   --> A              
     e( 76 - 76) =     20.80906  eV     1   --> A              
     e( 77 - 77) =     21.05554  eV     1   --> A              
     e( 78 - 78) =     21.13971  eV     1   --> A              
     e( 79 - 79) =     21.38434  eV     1   --> A              
     e( 80 - 80) =     21.65257  eV     1   --> A              
     e( 81 - 81) =     22.06967  eV     1   --> A              
     e( 82 - 82) =     22.10210  eV     1   --> A              
     e( 83 - 83) =     22.42258  eV     1   --> A              
     e( 84 - 84) =     22.53697  eV     1   --> A              

 **************************************************************************

 **************************************************************************

                    xk=(   0.27500,   0.36250,   0.41250  )

     Band symmetry, C_1 (1)     point group:

     e(  1 -  4) =    -73.40762  eV     4   -->   4 A              
     e(  5 -  5) =    -39.71501  eV     1   --> A              
     e(  6 -  6) =    -39.71476  eV     1   --> A              
     e(  7 -  7) =    -39.71464  eV     1   --> A              
     e(  8 -  8) =    -39.71444  eV     1   --> A              
     e(  9 - 10) =    -39.71286  eV     2   -->   2 A              
     e( 11 - 12) =    -39.71249  eV     2   -->   2 A              
     e( 13 - 16) =    -39.46481  eV     4   -->   4 A              
     e( 17 - 17) =     -2.95232  eV     1   --> A              
     e( 18 - 18) =     -2.55126  eV     1   --> A              
     e( 19 - 19) =     -2.39608  eV     1   --> A              
     e( 20 - 20) =     -2.28463  eV     1   --> A              
     e( 21 - 21) =      0.31670  eV     1   --> A              
     e( 22 - 22) =      0.36528  eV     1   --> A              
     e( 23 - 23) =      0.53515  eV     1   --> A              
     e( 24 - 24) =      0.63147  eV     1   --> A              
     e( 25 - 25) =      5.51709  eV     1   --> A              
     e( 26 - 26) =      5.78163  eV     1   --> A              
     e( 27 - 27) =      6.05724  eV     1   --> A              
     e( 28 - 28) =      6.33664  eV     1   --> A              
     e( 29 - 29) =      6.73241  eV     1   --> A              
     e( 30 - 30) =      7.09456  eV     1   --> A              
     e( 31 - 31) =      7.55922  eV     1   --> A              
     e( 32 - 32) =      7.97139  eV     1   --> A              
     e( 33 - 33) =      8.24220  eV     1   --> A              
     e( 34 - 34) =      8.50069  eV     1   --> A              
     e( 35 - 35) =      8.58152  eV     1   --> A              
     e( 36 - 36) =      8.63851  eV     1   --> A              
     e( 37 - 37) =      9.57460  eV     1   --> A              
     e( 38 - 38) =      9.70242  eV     1   --> A              
     e( 39 - 39) =      9.83265  eV     1   --> A              
     e( 40 - 40) =      9.97717  eV     1   --> A              
     e( 41 - 41) =     10.12340  eV     1   --> A              
     e( 42 - 42) =     10.33428  eV     1   --> A              
     e( 43 - 43) =     10.46796  eV     1   --> A              
     e( 44 - 44) =     10.82620  eV     1   --> A              
     e( 45 - 45) =     11.62924  eV     1   --> A              
     e( 46 - 46) =     11.72765  eV     1   --> A              
     e( 47 - 47) =     11.82307  eV     1   --> A              
     e( 48 - 48) =     11.84633  eV     1   --> A              
     e( 49 - 49) =     11.87292  eV     1   --> A              
     e( 50 - 50) =     11.98770  eV     1   --> A              
     e( 51 - 51) =     12.07328  eV     1   --> A              
     e( 52 - 52) =     12.16975  eV     1   --> A              
     e( 53 - 53) =     12.27778  eV     1   --> A              
     e( 54 - 54) =     12.42418  eV     1   --> A              
     e( 55 - 55) =     12.43510  eV     1   --> A              
     e( 56 - 56) =     12.49749  eV     1   --> A              
     e( 57 - 57) =     14.05928  eV     1   --> A              
     e( 58 - 58) =     14.32019  eV     1   --> A              
     e( 59 - 59) =     14.47859  eV     1   --> A              
     e( 60 - 60) =     14.53666  eV     1   --> A              
     e( 61 - 61) =     14.72116  eV     1   --> A              
     e( 62 - 62) =     14.80288  eV     1   --> A              
     e( 63 - 63) =     15.14034  eV     1   --> A              
     e( 64 - 64) =     15.22488  eV     1   --> A              
     e( 65 - 65) =     15.63184  eV     1   --> A              
     e( 66 - 66) =     15.74177  eV     1   --> A              
     e( 67 - 67) =     16.00625  eV     1   --> A              
     e( 68 - 68) =     16.10140  eV     1   --> A              
     e( 69 - 69) =     19.06776  eV     1   --> A              
     e( 70 - 70) =     19.18005  eV     1   --> A              
     e( 71 - 71) =     19.38299  eV     1   --> A              
     e( 72 - 72) =     20.07468  eV     1   --> A              
     e( 73 - 73) =     20.13296  eV     1   --> A              
     e( 74 - 74) =     20.46098  eV     1   --> A              
     e( 75 - 75) =     20.63026  eV     1   --> A              
     e( 76 - 76) =     20.76368  eV     1   --> A              
     e( 77 - 77) =     21.08329  eV     1   --> A              
     e( 78 - 78) =     21.15774  eV     1   --> A              
     e( 79 - 79) =     21.30819  eV     1   --> A              
     e( 80 - 80) =     21.79981  eV     1   --> A              
     e( 81 - 81) =     22.06814  eV     1   --> A              
     e( 82 - 82) =     22.08330  eV     1   --> A              
     e( 83 - 83) =     22.45118  eV     1   --> A              
     e( 84 - 84) =     22.71274  eV     1   --> A              

 **************************************************************************

 **************************************************************************

                    xk=(   0.25000,   0.37500,   0.37500  )

     Band symmetry, C_1 (1)     point group:

     e(  1 -  4) =    -73.40762  eV     4   -->   4 A              
     e(  5 -  5) =    -39.71498  eV     1   --> A              
     e(  6 -  7) =    -39.71469  eV     2   -->   2 A              
     e(  8 -  8) =    -39.71432  eV     1   --> A              
     e(  9 - 10) =    -39.71296  eV     2   -->   2 A              
     e( 11 - 12) =    -39.71251  eV     2   -->   2 A              
     e( 13 - 16) =    -39.46481  eV     4   -->   4 A              
     e( 17 - 17) =     -3.04321  eV     1   --> A              
     e( 18 - 18) =     -2.47635  eV     1   --> A              
     e( 19 - 19) =     -2.46714  eV     1   --> A              
     e( 20 - 20) =     -2.25690  eV     1   --> A              
     e( 21 - 21) =      0.34531  eV     1   --> A              
     e( 22 - 22) =      0.39964  eV     1   --> A              
     e( 23 - 23) =      0.60025  eV     1   --> A              
     e( 24 - 24) =      0.69170  eV     1   --> A              
     e( 25 - 25) =      5.45585  eV     1   --> A              
     e( 26 - 26) =      5.74244  eV     1   --> A              
     e( 27 - 27) =      5.99609  eV     1   --> A              
     e( 28 - 28) =      6.35334  eV     1   --> A              
     e( 29 - 29) =      6.66889  eV     1   --> A              
     e( 30 - 30) =      7.23893  eV     1   --> A              
     e( 31 - 31) =      7.43349  eV     1   --> A              
     e( 32 - 32) =      7.92646  eV     1   --> A              
     e( 33 - 33) =      8.25881  eV     1   --> A              
     e( 34 - 34) =      8.53541  eV     1   --> A              
     e( 35 - 35) =      8.57568  eV     1   --> A              
     e( 36 - 36) =      8.74728  eV     1   --> A              
     e( 37 - 37) =      9.49974  eV     1   --> A              
     e( 38 - 38) =      9.65327  eV     1   --> A              
     e( 39 - 39) =      9.71110  eV     1   --> A              
     e( 40 - 40) =      9.89067  eV     1   --> A              
     e( 41 - 41) =     10.09136  eV     1   --> A              
     e( 42 - 42) =     10.30540  eV     1   --> A              
     e( 43 - 43) =     10.42713  eV     1   --> A              
     e( 44 - 44) =     10.87190  eV     1   --> A              
     e( 45 - 45) =     11.64195  eV     1   --> A              
     e( 46 - 46) =     11.75732  eV     1   --> A              
     e( 47 - 47) =     11.84120  eV     1   --> A              
     e( 48 - 48) =     11.88110  eV     1   --> A              
     e( 49 - 49) =     11.90657  eV     1   --> A              
     e( 50 - 50) =     12.02602  eV     1   --> A              
     e( 51 - 51) =     12.09292  eV     1   --> A              
     e( 52 - 52) =     12.21326  eV     1   --> A              
     e( 53 - 53) =     12.28206  eV     1   --> A              
     e( 54 - 54) =     12.42547  eV     1   --> A              
     e( 55 - 55) =     12.46692  eV     1   --> A              
     e( 56 - 56) =     12.52441  eV     1   --> A              
     e( 57 - 57) =     14.05298  eV     1   --> A              
     e( 58 - 58) =     14.40650  eV     1   --> A              
     e( 59 - 59) =     14.48194  eV     1   --> A              
     e( 60 - 60) =     14.59207  eV     1   --> A              
     e( 61 - 61) =     14.68963  eV     1   --> A              
     e( 62 - 62) =     14.75833  eV     1   --> A              
     e( 63 - 63) =     15.12102  eV     1   --> A              
     e( 64 - 64) =     15.25757  eV     1   --> A              
     e( 65 - 65) =     15.58379  eV     1   --> A              
     e( 66 - 66) =     15.73479  eV     1   --> A              
     e( 67 - 67) =     15.98163  eV     1   --> A              
     e( 68 - 68) =     16.13218  eV     1   --> A              
     e( 69 - 69) =     19.07194  eV     1   --> A              
     e( 70 - 70) =     19.20481  eV     1   --> A              
     e( 71 - 71) =     19.34793  eV     1   --> A              
     e( 72 - 72) =     19.98395  eV     1   --> A              
     e( 73 - 73) =     20.25106  eV     1   --> A              
     e( 74 - 74) =     20.30737  eV     1   --> A              
     e( 75 - 75) =     20.53310  eV     1   --> A              
     e( 76 - 76) =     20.80892  eV     1   --> A              
     e( 77 - 77) =     21.03961  eV     1   --> A              
     e( 78 - 78) =     21.21925  eV     1   --> A              
     e( 79 - 79) =     21.45655  eV     1   --> A              
     e( 80 - 80) =     21.87883  eV     1   --> A              
     e( 81 - 81) =     22.00392  eV     1   --> A              
     e( 82 - 82) =     22.12329  eV     1   --> A              
     e( 83 - 83) =     22.49278  eV     1   --> A              
     e( 84 - 84) =     22.90939  eV     1   --> A              

 **************************************************************************

 **************************************************************************

                    xk=(   0.22500,   0.38750,   0.33750  )

     Band symmetry, C_1 (1)     point group:

     e(  1 -  4) =    -73.40766  eV     4   -->   4 A              
     e(  5 -  5) =    -39.71497  eV     1   --> A              
     e(  6 -  6) =    -39.71468  eV     1   --> A              
     e(  7 -  7) =    -39.71452  eV     1   --> A              
     e(  8 -  8) =    -39.71427  eV     1   --> A              
     e(  9 - 10) =    -39.71307  eV     2   -->   2 A              
     e( 11 - 12) =    -39.71257  eV     2   -->   2 A              
     e( 13 - 13) =    -39.46484  eV     1   --> A              
     e( 14 - 16) =    -39.46473  eV     3   -->   3 A              
     e( 17 - 17) =     -3.12610  eV     1   --> A              
     e( 18 - 18) =     -2.56448  eV     1   --> A              
     e( 19 - 19) =     -2.39000  eV     1   --> A              
     e( 20 - 20) =     -2.22349  eV     1   --> A              
     e( 21 - 21) =      0.37901  eV     1   --> A              
     e( 22 - 22) =      0.42998  eV     1   --> A              
     e( 23 - 23) =      0.68580  eV     1   --> A              
     e( 24 - 24) =      0.74959  eV     1   --> A              
     e( 25 - 25) =      5.40749  eV     1   --> A              
     e( 26 - 26) =      5.63634  eV     1   --> A              
     e( 27 - 27) =      6.02545  eV     1   --> A              
     e( 28 - 28) =      6.36689  eV     1   --> A              
     e( 29 - 29) =      6.60651  eV     1   --> A              
     e( 30 - 30) =      7.20383  eV     1   --> A              
     e( 31 - 31) =      7.48671  eV     1   --> A              
     e( 32 - 32) =      7.87309  eV     1   --> A              
     e( 33 - 33) =      8.22391  eV     1   --> A              
     e( 34 - 34) =      8.55274  eV     1   --> A              
     e( 35 - 35) =      8.57561  eV     1   --> A              
     e( 36 - 36) =      8.86091  eV     1   --> A              
     e( 37 - 37) =      9.42891  eV     1   --> A              
     e( 38 - 38) =      9.51102  eV     1   --> A              
     e( 39 - 39) =      9.70566  eV     1   --> A              
     e( 40 - 40) =      9.80391  eV     1   --> A              
     e( 41 - 41) =     10.05299  eV     1   --> A              
     e( 42 - 42) =     10.23282  eV     1   --> A              
     e( 43 - 43) =     10.42029  eV     1   --> A              
     e( 44 - 44) =     10.89712  eV     1   --> A              
     e( 45 - 45) =     11.67462  eV     1   --> A              
     e( 46 - 46) =     11.78541  eV     1   --> A              
     e( 47 - 47) =     11.85161  eV     1   --> A              
     e( 48 - 48) =     11.91872  eV     1   --> A              
     e( 49 - 49) =     11.95517  eV     1   --> A              
     e( 50 - 50) =     12.01378  eV     1   --> A              
     e( 51 - 51) =     12.15038  eV     1   --> A              
     e( 52 - 52) =     12.21181  eV     1   --> A              
     e( 53 - 53) =     12.32085  eV     1   --> A              
     e( 54 - 54) =     12.41815  eV     1   --> A              
     e( 55 - 55) =     12.49759  eV     1   --> A              
     e( 56 - 56) =     12.54786  eV     1   --> A              
     e( 57 - 57) =     14.05275  eV     1   --> A              
     e( 58 - 58) =     14.42956  eV     1   --> A              
     e( 59 - 59) =     14.50431  eV     1   --> A              
     e( 60 - 60) =     14.58834  eV     1   --> A              
     e( 61 - 61) =     14.71289  eV     1   --> A              
     e( 62 - 62) =     14.77003  eV     1   --> A              
     e( 63 - 63) =     15.09641  eV     1   --> A              
     e( 64 - 64) =     15.28810  eV     1   --> A              
     e( 65 - 65) =     15.55583  eV     1   --> A              
     e( 66 - 66) =     15.74291  eV     1   --> A              
     e( 67 - 67) =     15.95412  eV     1   --> A              
     e( 68 - 68) =     16.14934  eV     1   --> A              
     e( 69 - 69) =     19.09178  eV     1   --> A              
     e( 70 - 70) =     19.24845  eV     1   --> A              
     e( 71 - 71) =     19.36496  eV     1   --> A              
     e( 72 - 72) =     19.87510  eV     1   --> A              
     e( 73 - 73) =     20.07111  eV     1   --> A              
     e( 74 - 74) =     20.41255  eV     1   --> A              
     e( 75 - 75) =     20.50122  eV     1   --> A              
     e( 76 - 76) =     20.65918  eV     1   --> A              
     e( 77 - 77) =     21.09507  eV     1   --> A              
     e( 78 - 78) =     21.43497  eV     1   --> A              
     e( 79 - 79) =     21.60980  eV     1   --> A              
     e( 80 - 80) =     21.84575  eV     1   --> A              
     e( 81 - 81) =     21.93454  eV     1   --> A              
     e( 82 - 82) =     22.31806  eV     1   --> A              
     e( 83 - 83) =     22.52294  eV     1   --> A              
     e( 84 - 84) =     23.04889  eV     1   --> A              

 **************************************************************************

 **************************************************************************

                    xk=(   0.20000,   0.40000,   0.30000  )

     Band symmetry, C_1 (1)     point group:

     e(  1 -  4) =    -73.40766  eV     4   -->   4 A              
     e(  5 -  5) =    -39.71493  eV     1   --> A              
     e(  6 -  6) =    -39.71468  eV     1   --> A              
     e(  7 -  7) =    -39.71443  eV     1   --> A              
     e(  8 -  8) =    -39.71416  eV     1   --> A              
     e(  9 -  9) =    -39.71324  eV     1   --> A              
     e( 10 - 10) =    -39.71308  eV     1   --> A              
     e( 11 - 11) =    -39.71261  eV     1   --> A              
     e( 12 - 12) =    -39.71250  eV     1   --> A              
     e( 13 - 13) =    -39.46491  eV     1   --> A              
     e( 14 - 16) =    -39.46476  eV     3   -->   3 A              
     e( 17 - 17) =     -3.19928  eV     1   --> A              
     e( 18 - 18) =     -2.66588  eV     1   --> A              
     e( 19 - 19) =     -2.30961  eV     1   --> A              
     e( 20 - 20) =     -2.18556  eV     1   --> A              
     e( 21 - 21) =      0.41582  eV     1   --> A              
     e( 22 - 22) =      0.46324  eV     1   --> A              
     e( 23 - 23) =      0.76855  eV     1   --> A              
     e( 24 - 24) =      0.80866  eV     1   --> A              
     e( 25 - 25) =      5.37419  eV     1   --> A              
     e( 26 - 26) =      5.52961  eV     1   --> A              
     e( 27 - 27) =      6.08609  eV     1   --> A              
     e( 28 - 28) =      6.36747  eV     1   --> A              
     e( 29 - 29) =      6.55512  eV     1   --> A              
     e( 30 - 30) =      7.07906  eV     1   --> A              
     e( 31 - 31) =      7.58678  eV     1   --> A              
     e( 32 - 32) =      7.84275  eV     1   --> A              
     e( 33 - 33) =      8.16725  eV     1   --> A              
     e( 34 - 34) =      8.52464  eV     1   --> A              
     e( 35 - 35) =      8.62228  eV     1   --> A              
     e( 36 - 36) =      8.94109  eV     1   --> A              
     e( 37 - 37) =      9.33012  eV     1   --> A              
     e( 38 - 38) =      9.42337  eV     1   --> A              
     e( 39 - 39) =      9.68427  eV     1   --> A              
     e( 40 - 40) =      9.76047  eV     1   --> A              
     e( 41 - 41) =      9.99096  eV     1   --> A              
     e( 42 - 42) =     10.18000  eV     1   --> A              
     e( 43 - 43) =     10.40724  eV     1   --> A              
     e( 44 - 44) =     10.89374  eV     1   --> A              
     e( 45 - 45) =     11.72319  eV     1   --> A              
     e( 46 - 46) =     11.80398  eV     1   --> A              
     e( 47 - 47) =     11.87005  eV     1   --> A              
     e( 48 - 48) =     11.94518  eV     1   --> A              
     e( 49 - 49) =     11.99658  eV     1   --> A              
     e( 50 - 50) =     12.00989  eV     1   --> A              
     e( 51 - 51) =     12.18370  eV     1   --> A              
     e( 52 - 52) =     12.20627  eV     1   --> A              
     e( 53 - 53) =     12.35825  eV     1   --> A              
     e( 54 - 54) =     12.42451  eV     1   --> A              
     e( 55 - 55) =     12.51320  eV     1   --> A              
     e( 56 - 56) =     12.56376  eV     1   --> A              
     e( 57 - 57) =     14.04549  eV     1   --> A              
     e( 58 - 58) =     14.40327  eV     1   --> A              
     e( 59 - 59) =     14.47761  eV     1   --> A              
     e( 60 - 60) =     14.64241  eV     1   --> A              
     e( 61 - 61) =     14.69440  eV     1   --> A              
     e( 62 - 62) =     14.89384  eV     1   --> A              
     e( 63 - 63) =     15.07056  eV     1   --> A              
     e( 64 - 64) =     15.31690  eV     1   --> A              
     e( 65 - 65) =     15.55050  eV     1   --> A              
     e( 66 - 66) =     15.75380  eV     1   --> A              
     e( 67 - 67) =     15.93801  eV     1   --> A              
     e( 68 - 68) =     16.14933  eV     1   --> A              
     e( 69 - 69) =     19.11260  eV     1   --> A              
     e( 70 - 70) =     19.30957  eV     1   --> A              
     e( 71 - 71) =     19.41595  eV     1   --> A              
     e( 72 - 72) =     19.77061  eV     1   --> A              
     e( 73 - 73) =     19.88968  eV     1   --> A              
     e( 74 - 74) =     20.35647  eV     1   --> A              
     e( 75 - 75) =     20.56539  eV     1   --> A              
     e( 76 - 76) =     20.63689  eV     1   --> A              
     e( 77 - 77) =     21.14173  eV     1   --> A              
     e( 78 - 78) =     21.62669  eV     1   --> A              
     e( 79 - 79) =     21.74124  eV     1   --> A              
     e( 80 - 80) =     21.80328  eV     1   --> A              
     e( 81 - 81) =     21.97947  eV     1   --> A              
     e( 82 - 82) =     22.46954  eV     1   --> A              
     e( 83 - 83) =     22.64658  eV     1   --> A              
     e( 84 - 84) =     23.05819  eV     1   --> A              

 **************************************************************************

 **************************************************************************

                    xk=(   0.17500,   0.41250,   0.26250  )

     Band symmetry, C_1 (1)     point group:

     e(  1 -  4) =    -73.40768  eV     4   -->   4 A              
     e(  5 -  5) =    -39.71495  eV     1   --> A              
     e(  6 -  6) =    -39.71472  eV     1   --> A              
     e(  7 -  7) =    -39.71436  eV     1   --> A              
     e(  8 -  8) =    -39.71402  eV     1   --> A              
     e(  9 -  9) =    -39.71339  eV     1   --> A              
     e( 10 - 10) =    -39.71322  eV     1   --> A              
     e( 11 - 12) =    -39.71267  eV     2   -->   2 A              
     e( 13 - 13) =    -39.46494  eV     1   --> A              
     e( 14 - 16) =    -39.46481  eV     3   -->   3 A              
     e( 17 - 17) =     -3.26139  eV     1   --> A              
     e( 18 - 18) =     -2.77080  eV     1   --> A              
     e( 19 - 19) =     -2.23211  eV     1   --> A              
     e( 20 - 20) =     -2.14453  eV     1   --> A              
     e( 21 - 21) =      0.45478  eV     1   --> A              
     e( 22 - 22) =      0.50157  eV     1   --> A              
     e( 23 - 23) =      0.82262  eV     1   --> A              
     e( 24 - 24) =      0.88059  eV     1   --> A              
     e( 25 - 25) =      5.35746  eV     1   --> A              
     e( 26 - 26) =      5.44709  eV     1   --> A              
     e( 27 - 27) =      6.14987  eV     1   --> A              
     e( 28 - 28) =      6.34477  eV     1   --> A              
     e( 29 - 29) =      6.52443  eV     1   --> A              
     e( 30 - 30) =      6.96274  eV     1   --> A              
     e( 31 - 31) =      7.58350  eV     1   --> A              
     e( 32 - 32) =      7.84992  eV     1   --> A              
     e( 33 - 33) =      8.16544  eV     1   --> A              
     e( 34 - 34) =      8.49096  eV     1   --> A              
     e( 35 - 35) =      8.64980  eV     1   --> A              
     e( 36 - 36) =      8.98781  eV     1   --> A              
     e( 37 - 37) =      9.22758  eV     1   --> A              
     e( 38 - 38) =      9.37430  eV     1   --> A              
     e( 39 - 39) =      9.62879  eV     1   --> A              
     e( 40 - 40) =      9.78276  eV     1   --> A              
     e( 41 - 41) =      9.90379  eV     1   --> A              
     e( 42 - 42) =     10.15900  eV     1   --> A              
     e( 43 - 43) =     10.38026  eV     1   --> A              
     e( 44 - 44) =     10.85472  eV     1   --> A              
     e( 45 - 45) =     11.76578  eV     1   --> A              
     e( 46 - 46) =     11.82313  eV     1   --> A              
     e( 47 - 47) =     11.89412  eV     1   --> A              
     e( 48 - 48) =     11.94712  eV     1   --> A              
     e( 49 - 49) =     12.00419  eV     1   --> A              
     e( 50 - 50) =     12.06414  eV     1   --> A              
     e( 51 - 51) =     12.16499  eV     1   --> A              
     e( 52 - 52) =     12.22005  eV     1   --> A              
     e( 53 - 53) =     12.38684  eV     1   --> A              
     e( 54 - 54) =     12.45113  eV     1   --> A              
     e( 55 - 55) =     12.51515  eV     1   --> A              
     e( 56 - 56) =     12.57014  eV     1   --> A              
     e( 57 - 57) =     14.02715  eV     1   --> A              
     e( 58 - 58) =     14.36607  eV     1   --> A              
     e( 59 - 59) =     14.45390  eV     1   --> A              
     e( 60 - 60) =     14.65182  eV     1   --> A              
     e( 61 - 61) =     14.74626  eV     1   --> A              
     e( 62 - 62) =     15.00988  eV     1   --> A              
     e( 63 - 63) =     15.08054  eV     1   --> A              
     e( 64 - 64) =     15.34509  eV     1   --> A              
     e( 65 - 65) =     15.55871  eV     1   --> A              
     e( 66 - 66) =     15.74826  eV     1   --> A              
     e( 67 - 67) =     15.95218  eV     1   --> A              
     e( 68 - 68) =     16.13423  eV     1   --> A              
     e( 69 - 69) =     19.11962  eV     1   --> A              
     e( 70 - 70) =     19.36858  eV     1   --> A              
     e( 71 - 71) =     19.46929  eV     1   --> A              
     e( 72 - 72) =     19.63758  eV     1   --> A              
     e( 73 - 73) =     19.80192  eV     1   --> A              
     e( 74 - 74) =     20.23544  eV     1   --> A              
     e( 75 - 75) =     20.65885  eV     1   --> A              
     e( 76 - 76) =     20.73212  eV     1   --> A              
     e( 77 - 77) =     21.17399  eV     1   --> A              
     e( 78 - 78) =     21.64278  eV     1   --> A              
     e( 79 - 79) =     21.80756  eV     1   --> A              
     e( 80 - 80) =     21.90600  eV     1   --> A              
     e( 81 - 81) =     22.15221  eV     1   --> A              
     e( 82 - 82) =     22.54024  eV     1   --> A              
     e( 83 - 83) =     22.88317  eV     1   --> A              
     e( 84 - 84) =     22.97351  eV     1   --> A              

 **************************************************************************

 **************************************************************************

                    xk=(   0.15000,   0.42500,   0.22500  )

     Band symmetry, C_1 (1)     point group:

     e(  1 -  4) =    -73.40769  eV     4   -->   4 A              
     e(  5 -  5) =    -39.71488  eV     1   --> A              
     e(  6 -  6) =    -39.71469  eV     1   --> A              
     e(  7 -  7) =    -39.71426  eV     1   --> A              
     e(  8 -  8) =    -39.71389  eV     1   --> A              
     e(  9 -  9) =    -39.71348  eV     1   --> A              
     e( 10 - 10) =    -39.71330  eV     1   --> A              
     e( 11 - 12) =    -39.71270  eV     2   -->   2 A              
     e( 13 - 14) =    -39.46493  eV     2   -->   2 A              
     e( 15 - 16) =    -39.46472  eV     2   -->   2 A              
     e( 17 - 17) =     -3.31135  eV     1   --> A              
     e( 18 - 18) =     -2.87464  eV     1   --> A              
     e( 19 - 19) =     -2.15976  eV     1   --> A              
     e( 20 - 20) =     -2.10211  eV     1   --> A              
     e( 21 - 21) =      0.49597  eV     1   --> A              
     e( 22 - 22) =      0.54301  eV     1   --> A              
     e( 23 - 23) =      0.85665  eV     1   --> A              
     e( 24 - 24) =      0.94838  eV     1   --> A              
     e( 25 - 25) =      5.35763  eV     1   --> A              
     e( 26 - 26) =      5.39564  eV     1   --> A              
     e( 27 - 27) =      6.18550  eV     1   --> A              
     e( 28 - 28) =      6.30928  eV     1   --> A              
     e( 29 - 29) =      6.51447  eV     1   --> A              
     e( 30 - 30) =      6.87028  eV     1   --> A              
     e( 31 - 31) =      7.53468  eV     1   --> A              
     e( 32 - 32) =      7.80689  eV     1   --> A              
     e( 33 - 33) =      8.27403  eV     1   --> A              
     e( 34 - 34) =      8.45167  eV     1   --> A              
     e( 35 - 35) =      8.63535  eV     1   --> A              
     e( 36 - 36) =      9.00684  eV     1   --> A              
     e( 37 - 37) =      9.16882  eV     1   --> A              
     e( 38 - 38) =      9.32282  eV     1   --> A              
     e( 39 - 39) =      9.58731  eV     1   --> A              
     e( 40 - 40) =      9.79626  eV     1   --> A              
     e( 41 - 41) =      9.83368  eV     1   --> A              
     e( 42 - 42) =     10.15780  eV     1   --> A              
     e( 43 - 43) =     10.33560  eV     1   --> A              
     e( 44 - 44) =     10.77661  eV     1   --> A              
     e( 45 - 45) =     11.76595  eV     1   --> A              
     e( 46 - 46) =     11.86333  eV     1   --> A              
     e( 47 - 47) =     11.90062  eV     1   --> A              
     e( 48 - 48) =     11.96358  eV     1   --> A              
     e( 49 - 49) =     12.02331  eV     1   --> A              
     e( 50 - 50) =     12.11584  eV     1   --> A              
     e( 51 - 51) =     12.15041  eV     1   --> A              
     e( 52 - 52) =     12.21381  eV     1   --> A              
     e( 53 - 53) =     12.41587  eV     1   --> A              
     e( 54 - 54) =     12.48201  eV     1   --> A              
     e( 55 - 55) =     12.51363  eV     1   --> A              
     e( 56 - 56) =     12.56843  eV     1   --> A              
     e( 57 - 57) =     14.00906  eV     1   --> A              
     e( 58 - 58) =     14.31693  eV     1   --> A              
     e( 59 - 59) =     14.46951  eV     1   --> A              
     e( 60 - 60) =     14.62390  eV     1   --> A              
     e( 61 - 61) =     14.81751  eV     1   --> A              
     e( 62 - 62) =     15.02470  eV     1   --> A              
     e( 63 - 63) =     15.21617  eV     1   --> A              
     e( 64 - 64) =     15.37438  eV     1   --> A              
     e( 65 - 65) =     15.56543  eV     1   --> A              
     e( 66 - 66) =     15.72826  eV     1   --> A              
     e( 67 - 67) =     15.99519  eV     1   --> A              
     e( 68 - 68) =     16.11413  eV     1   --> A              
     e( 69 - 69) =     19.10591  eV     1   --> A              
     e( 70 - 70) =     19.38530  eV     1   --> A              
     e( 71 - 71) =     19.43355  eV     1   --> A              
     e( 72 - 72) =     19.53250  eV     1   --> A              
     e( 73 - 73) =     19.84154  eV     1   --> A              
     e( 74 - 74) =     20.18597  eV     1   --> A              
     e( 75 - 75) =     20.77387  eV     1   --> A              
     e( 76 - 76) =     20.83011  eV     1   --> A              
     e( 77 - 77) =     21.21383  eV     1   --> A              
     e( 78 - 78) =     21.57224  eV     1   --> A              
     e( 79 - 79) =     21.89930  eV     1   --> A              
     e( 80 - 80) =     22.04711  eV     1   --> A              
     e( 81 - 81) =     22.34675  eV     1   --> A              
     e( 82 - 82) =     22.60650  eV     1   --> A              
     e( 83 - 83) =     22.84253  eV     1   --> A              
     e( 84 - 84) =     23.17744  eV     1   --> A              

 **************************************************************************

 **************************************************************************

                    xk=(   0.12500,   0.43750,   0.18750  )

     Band symmetry, C_1 (1)     point group:

     e(  1 -  4) =    -73.40769  eV     4   -->   4 A              
     e(  5 -  5) =    -39.71485  eV     1   --> A              
     e(  6 -  6) =    -39.71467  eV     1   --> A              
     e(  7 -  7) =    -39.71417  eV     1   --> A              
     e(  8 -  8) =    -39.71382  eV     1   --> A              
     e(  9 -  9) =    -39.71352  eV     1   --> A              
     e( 10 - 10) =    -39.71335  eV     1   --> A              
     e( 11 - 12) =    -39.71278  eV     2   -->   2 A              
     e( 13 - 14) =    -39.46493  eV     2   -->   2 A              
     e( 15 - 16) =    -39.46470  eV     2   -->   2 A              
     e( 17 - 17) =     -3.34835  eV     1   --> A              
     e( 18 - 18) =     -2.97384  eV     1   --> A              
     e( 19 - 19) =     -2.09476  eV     1   --> A              
     e( 20 - 20) =     -2.06024  eV     1   --> A              
     e( 21 - 21) =      0.53908  eV     1   --> A              
     e( 22 - 22) =      0.58410  eV     1   --> A              
     e( 23 - 23) =      0.88085  eV     1   --> A              
     e( 24 - 24) =      0.99863  eV     1   --> A              
     e( 25 - 25) =      5.37304  eV     1   --> A              
     e( 26 - 26) =      5.37733  eV     1   --> A              
     e( 27 - 27) =      6.15472  eV     1   --> A              
     e( 28 - 28) =      6.27322  eV     1   --> A              
     e( 29 - 29) =      6.53275  eV     1   --> A              
     e( 30 - 30) =      6.80785  eV     1   --> A              
     e( 31 - 31) =      7.50355  eV     1   --> A              
     e( 32 - 32) =      7.74325  eV     1   --> A              
     e( 33 - 33) =      8.39558  eV     1   --> A              
     e( 34 - 34) =      8.43823  eV     1   --> A              
     e( 35 - 35) =      8.57350  eV     1   --> A              
     e( 36 - 36) =      8.99578  eV     1   --> A              
     e( 37 - 37) =      9.17053  eV     1   --> A              
     e( 38 - 38) =      9.26833  eV     1   --> A              
     e( 39 - 39) =      9.55991  eV     1   --> A              
     e( 40 - 40) =      9.70947  eV     1   --> A              
     e( 41 - 41) =      9.87112  eV     1   --> A              
     e( 42 - 42) =     10.16373  eV     1   --> A              
     e( 43 - 43) =     10.27428  eV     1   --> A              
     e( 44 - 44) =     10.66121  eV     1   --> A              
     e( 45 - 45) =     11.74970  eV     1   --> A              
     e( 46 - 46) =     11.83946  eV     1   --> A              
     e( 47 - 47) =     11.93790  eV     1   --> A              
     e( 48 - 48) =     11.99961  eV     1   --> A              
     e( 49 - 49) =     12.04382  eV     1   --> A              
     e( 50 - 50) =     12.14877  eV     1   --> A              
     e( 51 - 51) =     12.16623  eV     1   --> A              
     e( 52 - 52) =     12.20917  eV     1   --> A              
     e( 53 - 53) =     12.43298  eV     1   --> A              
     e( 54 - 54) =     12.50046  eV     1   --> A              
     e( 55 - 55) =     12.53079  eV     1   --> A              
     e( 56 - 56) =     12.56258  eV     1   --> A              
     e( 57 - 57) =     14.00405  eV     1   --> A              
     e( 58 - 58) =     14.27602  eV     1   --> A              
     e( 59 - 59) =     14.49215  eV     1   --> A              
     e( 60 - 60) =     14.58686  eV     1   --> A              
     e( 61 - 61) =     14.86813  eV     1   --> A              
     e( 62 - 62) =     15.04347  eV     1   --> A              
     e( 63 - 63) =     15.35872  eV     1   --> A              
     e( 64 - 64) =     15.40720  eV     1   --> A              
     e( 65 - 65) =     15.56317  eV     1   --> A              
     e( 66 - 66) =     15.70571  eV     1   --> A              
     e( 67 - 67) =     16.04634  eV     1   --> A              
     e( 68 - 68) =     16.11366  eV     1   --> A              
     e( 69 - 69) =     19.07622  eV     1   --> A              
     e( 70 - 70) =     19.26256  eV     1   --> A              
     e( 71 - 71) =     19.39873  eV     1   --> A              
     e( 72 - 72) =     19.45918  eV     1   --> A              
     e( 73 - 73) =     19.96296  eV     1   --> A              
     e( 74 - 74) =     20.23739  eV     1   --> A              
     e( 75 - 75) =     20.88171  eV     1   --> A              
     e( 76 - 76) =     20.93833  eV     1   --> A              
     e( 77 - 77) =     21.26295  eV     1   --> A              
     e( 78 - 78) =     21.51150  eV     1   --> A              
     e( 79 - 79) =     22.00678  eV     1   --> A              
     e( 80 - 80) =     22.18571  eV     1   --> A              
     e( 81 - 81) =     22.49228  eV     1   --> A              
[...]
     e( 20 - 20) =     -2.25573  eV     1   --> A              
     e( 21 - 21) =      0.34594  eV     1   --> A              
     e( 22 - 22) =      0.39610  eV     1   --> A              
     e( 23 - 23) =      0.60831  eV     1   --> A              
     e( 24 - 24) =      0.69422  eV     1   --> A              
     e( 25 - 25) =      5.45352  eV     1   --> A              
     e( 26 - 26) =      5.71161  eV     1   --> A              
     e( 27 - 27) =      6.02766  eV     1   --> A              
     e( 28 - 28) =      6.35208  eV     1   --> A              
     e( 29 - 29) =      6.66816  eV     1   --> A              
     e( 30 - 30) =      7.21003  eV     1   --> A              
     e( 31 - 31) =      7.47188  eV     1   --> A              
     e( 32 - 32) =      7.92994  eV     1   --> A              
     e( 33 - 33) =      8.23225  eV     1   --> A              
     e( 34 - 34) =      8.55858  eV     1   --> A              
     e( 35 - 35) =      8.56754  eV     1   --> A              
     e( 36 - 36) =      8.74056  eV     1   --> A              
     e( 37 - 37) =      9.51310  eV     1   --> A              
     e( 38 - 38) =      9.60852  eV     1   --> A              
     e( 39 - 39) =      9.74537  eV     1   --> A              
     e( 40 - 40) =      9.88444  eV     1   --> A              
     e( 41 - 41) =     10.10247  eV     1   --> A              
     e( 42 - 42) =     10.26231  eV     1   --> A              
     e( 43 - 43) =     10.45025  eV     1   --> A              
     e( 44 - 44) =     10.86427  eV     1   --> A              
     e( 45 - 45) =     11.64940  eV     1   --> A              
     e( 46 - 46) =     11.75936  eV     1   --> A              
     e( 47 - 47) =     11.83710  eV     1   --> A              
     e( 48 - 48) =     11.88700  eV     1   --> A              
     e( 49 - 49) =     11.92491  eV     1   --> A              
     e( 50 - 50) =     12.01432  eV     1   --> A              
     e( 51 - 51) =     12.10867  eV     1   --> A              
     e( 52 - 52) =     12.19383  eV     1   --> A              
     e( 53 - 53) =     12.28993  eV     1   --> A              
     e( 54 - 54) =     12.41130  eV     1   --> A              
     e( 55 - 55) =     12.47975  eV     1   --> A              
     e( 56 - 56) =     12.52492  eV     1   --> A              
     e( 57 - 57) =     14.05839  eV     1   --> A              
     e( 58 - 58) =     14.41408  eV     1   --> A              
     e( 59 - 59) =     14.46414  eV     1   --> A              
     e( 60 - 60) =     14.59187  eV     1   --> A              
     e( 61 - 61) =     14.70713  eV     1   --> A              
     e( 62 - 62) =     14.76513  eV     1   --> A              
     e( 63 - 63) =     15.12160  eV     1   --> A              
     e( 64 - 64) =     15.25005  eV     1   --> A              
     e( 65 - 65) =     15.58083  eV     1   --> A              
     e( 66 - 66) =     15.73556  eV     1   --> A              
     e( 67 - 67) =     15.97538  eV     1   --> A              
     e( 68 - 68) =     16.12323  eV     1   --> A              
     e( 69 - 69) =     19.07815  eV     1   --> A              
     e( 70 - 70) =     19.24629  eV     1   --> A              
     e( 71 - 71) =     19.33184  eV     1   --> A              
     e( 72 - 72) =     19.95779  eV     1   --> A              
     e( 73 - 73) =     20.16158  eV     1   --> A              
     e( 74 - 74) =     20.35894  eV     1   --> A              
     e( 75 - 75) =     20.49844  eV     1   --> A              
     e( 76 - 76) =     20.74268  eV     1   --> A              
     e( 77 - 77) =     21.06673  eV     1   --> A              
     e( 78 - 78) =     21.37844  eV     1   --> A              
     e( 79 - 79) =     21.52938  eV     1   --> A              
     e( 80 - 80) =     21.83884  eV     1   --> A              
     e( 81 - 81) =     21.94186  eV     1   --> A              
     e( 82 - 82) =     22.19331  eV     1   --> A              
     e( 83 - 83) =     22.43201  eV     1   --> A              
     e( 84 - 84) =     22.91497  eV     1   --> A              

 **************************************************************************

 **************************************************************************

                    xk=(   0.75000,   0.38750,   0.36250  )

     Band symmetry, C_1 (1)     point group:

     e(  1 -  4) =    -73.40763  eV     4   -->   4 A              
     e(  5 -  5) =    -39.71501  eV     1   --> A              
     e(  6 -  6) =    -39.71472  eV     1   --> A              
     e(  7 -  7) =    -39.71462  eV     1   --> A              
     e(  8 -  8) =    -39.71434  eV     1   --> A              
     e(  9 - 10) =    -39.71299  eV     2   -->   2 A              
     e( 11 - 12) =    -39.71254  eV     2   -->   2 A              
     e( 13 - 13) =    -39.46485  eV     1   --> A              
     e( 14 - 16) =    -39.46474  eV     3   -->   3 A              
     e( 17 - 17) =     -3.04233  eV     1   --> A              
     e( 18 - 18) =     -2.51495  eV     1   --> A              
     e( 19 - 19) =     -2.43075  eV     1   --> A              
     e( 20 - 20) =     -2.25638  eV     1   --> A              
     e( 21 - 21) =      0.34539  eV     1   --> A              
     e( 22 - 22) =      0.39727  eV     1   --> A              
     e( 23 - 23) =      0.60459  eV     1   --> A              
     e( 24 - 24) =      0.69315  eV     1   --> A              
     e( 25 - 25) =      5.45415  eV     1   --> A              
     e( 26 - 26) =      5.72469  eV     1   --> A              
     e( 27 - 27) =      6.01356  eV     1   --> A              
     e( 28 - 28) =      6.35240  eV     1   --> A              
     e( 29 - 29) =      6.66922  eV     1   --> A              
     e( 30 - 30) =      7.23747  eV     1   --> A              
     e( 31 - 31) =      7.44189  eV     1   --> A              
     e( 32 - 32) =      7.92815  eV     1   --> A              
     e( 33 - 33) =      8.24250  eV     1   --> A              
     e( 34 - 34) =      8.55205  eV     1   --> A              
     e( 35 - 35) =      8.56872  eV     1   --> A              
     e( 36 - 36) =      8.74283  eV     1   --> A              
     e( 37 - 37) =      9.51003  eV     1   --> A              
     e( 38 - 38) =      9.62467  eV     1   --> A              
     e( 39 - 39) =      9.73280  eV     1   --> A              
     e( 40 - 40) =      9.88579  eV     1   --> A              
     e( 41 - 41) =     10.09874  eV     1   --> A              
     e( 42 - 42) =     10.27825  eV     1   --> A              
     e( 43 - 43) =     10.44219  eV     1   --> A              
     e( 44 - 44) =     10.86814  eV     1   --> A              
     e( 45 - 45) =     11.64580  eV     1   --> A              
     e( 46 - 46) =     11.75895  eV     1   --> A              
     e( 47 - 47) =     11.83816  eV     1   --> A              
     e( 48 - 48) =     11.88443  eV     1   --> A              
     e( 49 - 49) =     11.91871  eV     1   --> A              
     e( 50 - 50) =     12.01952  eV     1   --> A              
     e( 51 - 51) =     12.10218  eV     1   --> A              
     e( 52 - 52) =     12.20082  eV     1   --> A              
     e( 53 - 53) =     12.28661  eV     1   --> A              
     e( 54 - 54) =     12.41560  eV     1   --> A              
     e( 55 - 55) =     12.47556  eV     1   --> A              
     e( 56 - 56) =     12.52446  eV     1   --> A              
     e( 57 - 57) =     14.05603  eV     1   --> A              
     e( 58 - 58) =     14.41812  eV     1   --> A              
     e( 59 - 59) =     14.46405  eV     1   --> A              
     e( 60 - 60) =     14.59184  eV     1   --> A              
     e( 61 - 61) =     14.70076  eV     1   --> A              
     e( 62 - 62) =     14.76267  eV     1   --> A              
     e( 63 - 63) =     15.12080  eV     1   --> A              
     e( 64 - 64) =     15.25314  eV     1   --> A              
     e( 65 - 65) =     15.58099  eV     1   --> A              
     e( 66 - 66) =     15.73575  eV     1   --> A              
     e( 67 - 67) =     15.97703  eV     1   --> A              
     e( 68 - 68) =     16.12694  eV     1   --> A              
     e( 69 - 69) =     19.07604  eV     1   --> A              
     e( 70 - 70) =     19.23218  eV     1   --> A              
     e( 71 - 71) =     19.33566  eV     1   --> A              
     e( 72 - 72) =     19.96985  eV     1   --> A              
     e( 73 - 73) =     20.19545  eV     1   --> A              
     e( 74 - 74) =     20.34410  eV     1   --> A              
     e( 75 - 75) =     20.50367  eV     1   --> A              
     e( 76 - 76) =     20.76556  eV     1   --> A              
     e( 77 - 77) =     21.05887  eV     1   --> A              
     e( 78 - 78) =     21.31887  eV     1   --> A              
     e( 79 - 79) =     21.50686  eV     1   --> A              
     e( 80 - 80) =     21.85417  eV     1   --> A              
     e( 81 - 81) =     21.95950  eV     1   --> A              
     e( 82 - 82) =     22.16599  eV     1   --> A              
     e( 83 - 83) =     22.45208  eV     1   --> A              
     e( 84 - 84) =     22.91782  eV     1   --> A              

 **************************************************************************

 **************************************************************************

                    xk=(   0.75000,   0.38125,   0.36875  )

     Band symmetry, C_1 (1)     point group:

     e(  1 -  4) =    -73.40762  eV     4   -->   4 A              
     e(  5 -  5) =    -39.71500  eV     1   --> A              
     e(  6 -  7) =    -39.71470  eV     2   -->   2 A              
     e(  8 -  8) =    -39.71433  eV     1   --> A              
     e(  9 - 10) =    -39.71298  eV     2   -->   2 A              
     e( 11 - 12) =    -39.71252  eV     2   -->   2 A              
     e( 13 - 13) =    -39.46484  eV     1   --> A              
     e( 14 - 16) =    -39.46473  eV     3   -->   3 A              
     e( 17 - 17) =     -3.04299  eV     1   --> A              
     e( 18 - 18) =     -2.49365  eV     1   --> A              
     e( 19 - 19) =     -2.45036  eV     1   --> A              
     e( 20 - 20) =     -2.25677  eV     1   --> A              
     e( 21 - 21) =      0.34518  eV     1   --> A              
     e( 22 - 22) =      0.39847  eV     1   --> A              
     e( 23 - 23) =      0.60188  eV     1   --> A              
     e( 24 - 24) =      0.69230  eV     1   --> A              
     e( 25 - 25) =      5.45493  eV     1   --> A              
     e( 26 - 26) =      5.73526  eV     1   --> A              
     e( 27 - 27) =      6.00273  eV     1   --> A              
     e( 28 - 28) =      6.35282  eV     1   --> A              
     e( 29 - 29) =      6.66946  eV     1   --> A              
     e( 30 - 30) =      7.24936  eV     1   --> A              
     e( 31 - 31) =      7.42679  eV     1   --> A              
     e( 32 - 32) =      7.92700  eV     1   --> A              
     e( 33 - 33) =      8.25151  eV     1   --> A              
     e( 34 - 34) =      8.54345  eV     1   --> A              
     e( 35 - 35) =      8.57218  eV     1   --> A              
     e( 36 - 36) =      8.74509  eV     1   --> A              
     e( 37 - 37) =      9.50547  eV     1   --> A              
     e( 38 - 38) =      9.64027  eV     1   --> A              
     e( 39 - 39) =      9.72072  eV     1   --> A              
     e( 40 - 40) =      9.88801  eV     1   --> A              
     e( 41 - 41) =     10.09494  eV     1   --> A              
     e( 42 - 42) =     10.29286  eV     1   --> A              
     e( 43 - 43) =     10.43429  eV     1   --> A              
     e( 44 - 44) =     10.87069  eV     1   --> A              
     e( 45 - 45) =     11.64330  eV     1   --> A              
     e( 46 - 46) =     11.75829  eV     1   --> A              
     e( 47 - 47) =     11.83955  eV     1   --> A              
     e( 48 - 48) =     11.88247  eV     1   --> A              
     e( 49 - 49) =     11.91252  eV     1   --> A              
     e( 50 - 50) =     12.02356  eV     1   --> A              
     e( 51 - 51) =     12.09678  eV     1   --> A              
     e( 52 - 52) =     12.20741  eV     1   --> A              
     e( 53 - 53) =     12.28391  eV     1   --> A              
     e( 54 - 54) =     12.42036  eV     1   --> A              
     e( 55 - 55) =     12.47129  eV     1   --> A              
     e( 56 - 56) =     12.52429  eV     1   --> A              
     e( 57 - 57) =     14.05423  eV     1   --> A              
     e( 58 - 58) =     14.41461  eV     1   --> A              
     e( 59 - 59) =     14.47101  eV     1   --> A              
     e( 60 - 60) =     14.59193  eV     1   --> A              
     e( 61 - 61) =     14.69488  eV     1   --> A              
     e( 62 - 62) =     14.76039  eV     1   --> A              
     e( 63 - 63) =     15.12061  eV     1   --> A              
     e( 64 - 64) =     15.25568  eV     1   --> A              
     e( 65 - 65) =     15.58198  eV     1   --> A              
     e( 66 - 66) =     15.73548  eV     1   --> A              
     e( 67 - 67) =     15.97913  eV     1   --> A              
     e( 68 - 68) =     16.12994  eV     1   --> A              
     e( 69 - 69) =     19.07399  eV     1   --> A              
     e( 70 - 70) =     19.21809  eV     1   --> A              
     e( 71 - 71) =     19.34121  eV     1   --> A              
     e( 72 - 72) =     19.97878  eV     1   --> A              
     e( 73 - 73) =     20.22676  eV     1   --> A              
     e( 74 - 74) =     20.32482  eV     1   --> A              
     e( 75 - 75) =     20.51513  eV     1   --> A              
     e( 76 - 76) =     20.78970  eV     1   --> A              
     e( 77 - 77) =     21.04940  eV     1   --> A              
     e( 78 - 78) =     21.26448  eV     1   --> A              
     e( 79 - 79) =     21.48235  eV     1   --> A              
     e( 80 - 80) =     21.86846  eV     1   --> A              
     e( 81 - 81) =     21.98029  eV     1   --> A              
     e( 82 - 82) =     22.14175  eV     1   --> A              
     e( 83 - 83) =     22.47270  eV     1   --> A              
     e( 84 - 84) =     22.91594  eV     1   --> A              

 **************************************************************************

 **************************************************************************

                    xk=(   0.75000,   0.37500,   0.37500  )

     Band symmetry, C_1 (1)     point group:

     e(  1 -  4) =    -73.40762  eV     4   -->   4 A              
     e(  5 -  5) =    -39.71498  eV     1   --> A              
     e(  6 -  7) =    -39.71469  eV     2   -->   2 A              
     e(  8 -  8) =    -39.71432  eV     1   --> A              
     e(  9 - 10) =    -39.71296  eV     2   -->   2 A              
     e( 11 - 12) =    -39.71251  eV     2   -->   2 A              
     e( 13 - 16) =    -39.46481  eV     4   -->   4 A              
     e( 17 - 17) =     -3.04321  eV     1   --> A              
     e( 18 - 18) =     -2.47635  eV     1   --> A              
     e( 19 - 19) =     -2.46714  eV     1   --> A              
     e( 20 - 20) =     -2.25690  eV     1   --> A              
     e( 21 - 21) =      0.34531  eV     1   --> A              
     e( 22 - 22) =      0.39964  eV     1   --> A              
     e( 23 - 23) =      0.60025  eV     1   --> A              
     e( 24 - 24) =      0.69170  eV     1   --> A              
     e( 25 - 25) =      5.45585  eV     1   --> A              
     e( 26 - 26) =      5.74244  eV     1   --> A              
     e( 27 - 27) =      5.99609  eV     1   --> A              
     e( 28 - 28) =      6.35334  eV     1   --> A              
     e( 29 - 29) =      6.66889  eV     1   --> A              
     e( 30 - 30) =      7.23893  eV     1   --> A              
     e( 31 - 31) =      7.43349  eV     1   --> A              
     e( 32 - 32) =      7.92646  eV     1   --> A              
     e( 33 - 33) =      8.25881  eV     1   --> A              
     e( 34 - 34) =      8.53541  eV     1   --> A              
     e( 35 - 35) =      8.57568  eV     1   --> A              
     e( 36 - 36) =      8.74728  eV     1   --> A              
     e( 37 - 37) =      9.49974  eV     1   --> A              
     e( 38 - 38) =      9.65327  eV     1   --> A              
     e( 39 - 39) =      9.71110  eV     1   --> A              
     e( 40 - 40) =      9.89067  eV     1   --> A              
     e( 41 - 41) =     10.09136  eV     1   --> A              
     e( 42 - 42) =     10.30540  eV     1   --> A              
     e( 43 - 43) =     10.42713  eV     1   --> A              
     e( 44 - 44) =     10.87190  eV     1   --> A              
     e( 45 - 45) =     11.64195  eV     1   --> A              
     e( 46 - 46) =     11.75732  eV     1   --> A              
     e( 47 - 47) =     11.84120  eV     1   --> A              
     e( 48 - 48) =     11.88110  eV     1   --> A              
     e( 49 - 49) =     11.90657  eV     1   --> A              
     e( 50 - 50) =     12.02602  eV     1   --> A              
     e( 51 - 51) =     12.09292  eV     1   --> A              
     e( 52 - 52) =     12.21326  eV     1   --> A              
     e( 53 - 53) =     12.28206  eV     1   --> A              
     e( 54 - 54) =     12.42547  eV     1   --> A              
     e( 55 - 55) =     12.46692  eV     1   --> A              
     e( 56 - 56) =     12.52441  eV     1   --> A              
     e( 57 - 57) =     14.05298  eV     1   --> A              
     e( 58 - 58) =     14.40650  eV     1   --> A              
     e( 59 - 59) =     14.48194  eV     1   --> A              
     e( 60 - 60) =     14.59207  eV     1   --> A              
     e( 61 - 61) =     14.68963  eV     1   --> A              
     e( 62 - 62) =     14.75833  eV     1   --> A              
     e( 63 - 63) =     15.12102  eV     1   --> A              
     e( 64 - 64) =     15.25757  eV     1   --> A              
     e( 65 - 65) =     15.58379  eV     1   --> A              
     e( 66 - 66) =     15.73479  eV     1   --> A              
     e( 67 - 67) =     15.98163  eV     1   --> A              
     e( 68 - 68) =     16.13218  eV     1   --> A              
     e( 69 - 69) =     19.07194  eV     1   --> A              
     e( 70 - 70) =     19.20481  eV     1   --> A              
     e( 71 - 71) =     19.34793  eV     1   --> A              
     e( 72 - 72) =     19.98395  eV     1   --> A              
     e( 73 - 73) =     20.25106  eV     1   --> A              
     e( 74 - 74) =     20.30737  eV     1   --> A              
     e( 75 - 75) =     20.53310  eV     1   --> A              
     e( 76 - 76) =     20.80892  eV     1   --> A              
     e( 77 - 77) =     21.03961  eV     1   --> A              
     e( 78 - 78) =     21.21925  eV     1   --> A              
     e( 79 - 79) =     21.45655  eV     1   --> A              
     e( 80 - 80) =     21.87883  eV     1   --> A              
     e( 81 - 81) =     22.00392  eV     1   --> A              
     e( 82 - 82) =     22.12329  eV     1   --> A              
     e( 83 - 83) =     22.49278  eV     1   --> A              
     e( 84 - 84) =     22.90938  eV     1   --> A              

 **************************************************************************

     BANDS        :     36.82s CPU     48.87s WALL


   This run was terminated on:  10:38: 1  22Sep2023            

=------------------------------------------------------------------------------=
   JOB DONE.
=------------------------------------------------------------------------------=
