
     Program PWSCF v.7.1 starts on 22Sep2023 at 10:34:16 

     This program is part of the open-source Quantum ESPRESSO suite
     for quantum simulation of materials; please cite
         "P. Giannozzi et al., J. Phys.:Condens. Matter 21 395502 (2009);
         "P. Giannozzi et al., J. Phys.:Condens. Matter 29 465901 (2017);
         "P. Giannozzi et al., J. Chem. Phys. 152 154105 (2020);
          URL http://www.quantum-espresso.org", 
     in publications or presentations arising from this work. More details at
     http://www.quantum-espresso.org/quote

     Parallel version (MPI & OpenMP), running on      10 processor cores
     Number of MPI processes:                10
     Threads/MPI process:                     1

     MPI processes distributed on     1 nodes
     11762 MiB available memory on the printing compute node when the environment starts

     Waiting for input...
     Reading input from standard input

     Current dimensions of program PWSCF are:
     Max number of different atomic species (ntypx) = 10
     Max number of k-points (npk) =  40000
     Max angular momentum in pseudopotentials (lmaxx) =  4

     Atomic positions and unit cell read from directory:
     ./work/pwscf.save/

     file S.pbesol-n-kjpaw_psl.1.0.0.UPF: wavefunction(s)  3S 3P renormalized
     file Fe.pbesol-spn-kjpaw_psl.1.0.0.UPF: wavefunction(s)  3P 3D renormalized
     Message from routine setup:
     using ibrav=0 with symmetry is DISCOURAGED, use correct ibrav instead

     R & G space division:  proc/nbgrp/npool/nimage =      10
     Subspace diagonalization in iterative solution of the eigenvalue problem:
     a serial algorithm will be used


     Parallelization info
     --------------------
     sticks:   dense  smooth     PW     G-vecs:    dense   smooth      PW
     Min         411     236     67                19790     8572    1313
     Max         413     237     68                19791     8575    1314
     Sum        4117    2361    673               197909    85735   13133

     Using Slab Decomposition



     bravais-lattice index     =            0
     lattice parameter (alat)  =      10.1985  a.u.
     unit-cell volume          =    1060.7436 (a.u.)^3
     number of atoms/cell      =           12
     number of atomic types    =            2
     number of electrons       =       112.00
     number of Kohn-Sham states=           84
     kinetic-energy cutoff     =      71.0000  Ry
     charge density cutoff     =     496.0000  Ry
     Exchange-correlation= SLA  PW   PSX  PSC
                           (   1   4  10   8   0   0   0)

     celldm(1)=  10.198512  celldm(2)=   0.000000  celldm(3)=   0.000000
     celldm(4)=   0.000000  celldm(5)=   0.000000  celldm(6)=   0.000000

     crystal axes: (cart. coord. in units of alat)
               a(1) = (   1.000000   0.000000   0.000000 )  
               a(2) = (   0.000000   1.000000   0.000000 )  
               a(3) = (   0.000000   0.000000   1.000000 )  

     reciprocal axes: (cart. coord. in units 2 pi/alat)
               b(1) = (  1.000000  0.000000  0.000000 )  
               b(2) = (  0.000000  1.000000  0.000000 )  
               b(3) = (  0.000000  0.000000  1.000000 )  


     PseudoPot. # 1 for S  read from file:
     ./../../pseudo/psl100_PBEsol/S.pbesol-n-kjpaw_psl.1.0.0.UPF
     MD5 check sum: 2cf4e294330da61e10a1dbb641f50f6a
     Pseudo is Projector augmented-wave + core cor, Zval =  6.0
     Generated using 'atomic' code by A. Dal Corso  v.7.2
     Shape of augmentation charge: PSQ
     Using radial grid of 1151 points,  6 beta functions with: 
                l(1) =   0
                l(2) =   0
                l(3) =   1
                l(4) =   1
                l(5) =   2
                l(6) =   2
     Q(r) pseudized with 0 coefficients 


     PseudoPot. # 2 for Fe read from file:
     ./../../pseudo/psl100_PBEsol/Fe.pbesol-spn-kjpaw_psl.1.0.0.UPF
     MD5 check sum: 8b6cdcb1dd09b3a5f73bd908344a89de
     Pseudo is Projector augmented-wave + core cor, Zval = 16.0
     Generated using 'atomic' code by A. Dal Corso  v.7.2
     Shape of augmentation charge: PSQ
     Using radial grid of 1191 points,  6 beta functions with: 
                l(1) =   0
                l(2) =   0
                l(3) =   1
                l(4) =   1
                l(5) =   2
                l(6) =   2
     Q(r) pseudized with 0 coefficients 


     atomic species   valence    mass     pseudopotential
        S              6.00    32.06750     S ( 1.00)
        Fe            16.00    55.84500     Fe( 1.00)

     24 Sym. Ops., with inversion, found (18 have fractional translation)


                                    s                        frac. trans.

      isym =  1     identity                                     

 cryst.   s( 1) = (     1          0          0      )
                  (     0          1          0      )
                  (     0          0          1      )

 cart.    s( 1) = (  1.0000000  0.0000000  0.0000000 )
                  (  0.0000000  1.0000000  0.0000000 )
                  (  0.0000000  0.0000000  1.0000000 )


      isym =  2     180 deg rotation - cart. axis [0,0,1]        

 cryst.   s( 2) = (    -1          0          0      )    f =( -0.5000000 )
                  (     0         -1          0      )       (  0.0000000 )
                  (     0          0          1      )       ( -0.5000000 )

 cart.    s( 2) = ( -1.0000000  0.0000000  0.0000000 )    f =( -0.5000000 )
                  (  0.0000000 -1.0000000  0.0000000 )       (  0.0000000 )
                  (  0.0000000  0.0000000  1.0000000 )       ( -0.5000000 )


      isym =  3     180 deg rotation - cart. axis [0,1,0]        

 cryst.   s( 3) = (    -1          0          0      )    f =(  0.0000000 )
                  (     0          1          0      )       ( -0.5000000 )
                  (     0          0         -1      )       ( -0.5000000 )

 cart.    s( 3) = ( -1.0000000  0.0000000  0.0000000 )    f =(  0.0000000 )
                  (  0.0000000  1.0000000  0.0000000 )       ( -0.5000000 )
                  (  0.0000000  0.0000000 -1.0000000 )       ( -0.5000000 )


      isym =  4     180 deg rotation - cart. axis [1,0,0]        

 cryst.   s( 4) = (     1          0          0      )    f =(  0.5000000 )
                  (     0         -1          0      )       ( -0.5000000 )
                  (     0          0         -1      )       (  0.0000000 )

 cart.    s( 4) = (  1.0000000  0.0000000  0.0000000 )    f =(  0.5000000 )
                  (  0.0000000 -1.0000000  0.0000000 )       ( -0.5000000 )
                  (  0.0000000  0.0000000 -1.0000000 )       (  0.0000000 )


      isym =  5     120 deg rotation - cart. axis [-1,-1,-1]     

 cryst.   s( 5) = (     0          0          1      )
                  (     1          0          0      )
                  (     0          1          0      )

 cart.    s( 5) = (  0.0000000  1.0000000  0.0000000 )
                  (  0.0000000  0.0000000  1.0000000 )
                  (  1.0000000  0.0000000  0.0000000 )


      isym =  6     120 deg rotation - cart. axis [-1,1,1]       

 cryst.   s( 6) = (     0          0         -1      )    f =(  0.0000000 )
                  (    -1          0          0      )       ( -0.5000000 )
                  (     0          1          0      )       ( -0.5000000 )

 cart.    s( 6) = (  0.0000000 -1.0000000  0.0000000 )    f =(  0.0000000 )
                  (  0.0000000  0.0000000  1.0000000 )       ( -0.5000000 )
                  ( -1.0000000  0.0000000  0.0000000 )       ( -0.5000000 )


      isym =  7     120 deg rotation - cart. axis [1,1,-1]       

 cryst.   s( 7) = (     0          0         -1      )    f =(  0.5000000 )
                  (     1          0          0      )       ( -0.5000000 )
                  (     0         -1          0      )       (  0.0000000 )

 cart.    s( 7) = (  0.0000000  1.0000000  0.0000000 )    f =(  0.5000000 )
                  (  0.0000000  0.0000000 -1.0000000 )       ( -0.5000000 )
                  ( -1.0000000  0.0000000  0.0000000 )       (  0.0000000 )


      isym =  8     120 deg rotation - cart. axis [1,-1,1]       

 cryst.   s( 8) = (     0          0          1      )    f =( -0.5000000 )
                  (    -1          0          0      )       (  0.0000000 )
                  (     0         -1          0      )       ( -0.5000000 )

 cart.    s( 8) = (  0.0000000 -1.0000000  0.0000000 )    f =( -0.5000000 )
                  (  0.0000000  0.0000000 -1.0000000 )       (  0.0000000 )
                  (  1.0000000  0.0000000  0.0000000 )       ( -0.5000000 )


      isym =  9     120 deg rotation - cart. axis [1,1,1]        

 cryst.   s( 9) = (     0          1          0      )
                  (     0          0          1      )
                  (     1          0          0      )

 cart.    s( 9) = (  0.0000000  0.0000000  1.0000000 )
                  (  1.0000000  0.0000000  0.0000000 )
                  (  0.0000000  1.0000000  0.0000000 )


      isym = 10     120 deg rotation - cart. axis [-1,1,-1]      

 cryst.   s(10) = (     0         -1          0      )    f =(  0.5000000 )
                  (     0          0         -1      )       ( -0.5000000 )
                  (     1          0          0      )       (  0.0000000 )

 cart.    s(10) = (  0.0000000  0.0000000  1.0000000 )    f =(  0.5000000 )
                  ( -1.0000000  0.0000000  0.0000000 )       ( -0.5000000 )
                  (  0.0000000 -1.0000000  0.0000000 )       (  0.0000000 )


      isym = 11     120 deg rotation - cart. axis [1,-1,-1]      

 cryst.   s(11) = (     0         -1          0      )    f =( -0.5000000 )
                  (     0          0          1      )       (  0.0000000 )
                  (    -1          0          0      )       ( -0.5000000 )

 cart.    s(11) = (  0.0000000  0.0000000 -1.0000000 )    f =( -0.5000000 )
                  ( -1.0000000  0.0000000  0.0000000 )       (  0.0000000 )
                  (  0.0000000  1.0000000  0.0000000 )       ( -0.5000000 )


      isym = 12     120 deg rotation - cart. axis [-1,-1,1]      

 cryst.   s(12) = (     0          1          0      )    f =(  0.0000000 )
                  (     0          0         -1      )       ( -0.5000000 )
                  (    -1          0          0      )       ( -0.5000000 )

 cart.    s(12) = (  0.0000000  0.0000000 -1.0000000 )    f =(  0.0000000 )
                  (  1.0000000  0.0000000  0.0000000 )       ( -0.5000000 )
                  (  0.0000000 -1.0000000  0.0000000 )       ( -0.5000000 )


      isym = 13     inversion                                    

 cryst.   s(13) = (    -1          0          0      )
                  (     0         -1          0      )
                  (     0          0         -1      )

 cart.    s(13) = ( -1.0000000  0.0000000  0.0000000 )
                  (  0.0000000 -1.0000000  0.0000000 )
                  (  0.0000000  0.0000000 -1.0000000 )


      isym = 14     inv. 180 deg rotation - cart. axis [0,0,1]   

 cryst.   s(14) = (     1          0          0      )    f =(  0.5000000 )
                  (     0          1          0      )       (  0.0000000 )
                  (     0          0         -1      )       ( -0.5000000 )

 cart.    s(14) = (  1.0000000  0.0000000  0.0000000 )    f =(  0.5000000 )
                  (  0.0000000  1.0000000  0.0000000 )       (  0.0000000 )
                  (  0.0000000  0.0000000 -1.0000000 )       ( -0.5000000 )


      isym = 15     inv. 180 deg rotation - cart. axis [0,1,0]   

 cryst.   s(15) = (     1          0          0      )    f =(  0.0000000 )
                  (     0         -1          0      )       ( -0.5000000 )
                  (     0          0          1      )       ( -0.5000000 )

 cart.    s(15) = (  1.0000000  0.0000000  0.0000000 )    f =(  0.0000000 )
                  (  0.0000000 -1.0000000  0.0000000 )       ( -0.5000000 )
                  (  0.0000000  0.0000000  1.0000000 )       ( -0.5000000 )


      isym = 16     inv. 180 deg rotation - cart. axis [1,0,0]   

 cryst.   s(16) = (    -1          0          0      )    f =( -0.5000000 )
                  (     0          1          0      )       ( -0.5000000 )
                  (     0          0          1      )       (  0.0000000 )

 cart.    s(16) = ( -1.0000000  0.0000000  0.0000000 )    f =( -0.5000000 )
                  (  0.0000000  1.0000000  0.0000000 )       ( -0.5000000 )
                  (  0.0000000  0.0000000  1.0000000 )       (  0.0000000 )


      isym = 17     inv. 120 deg rotation - cart. axis [-1,-1,-1]

 cryst.   s(17) = (     0          0         -1      )
                  (    -1          0          0      )
                  (     0         -1          0      )

 cart.    s(17) = (  0.0000000 -1.0000000  0.0000000 )
                  (  0.0000000  0.0000000 -1.0000000 )
                  ( -1.0000000  0.0000000  0.0000000 )


      isym = 18     inv. 120 deg rotation - cart. axis [-1,1,1]  

 cryst.   s(18) = (     0          0          1      )    f =(  0.0000000 )
                  (     1          0          0      )       ( -0.5000000 )
                  (     0         -1          0      )       ( -0.5000000 )

 cart.    s(18) = (  0.0000000  1.0000000  0.0000000 )    f =(  0.0000000 )
                  (  0.0000000  0.0000000 -1.0000000 )       ( -0.5000000 )
                  (  1.0000000  0.0000000  0.0000000 )       ( -0.5000000 )


      isym = 19     inv. 120 deg rotation - cart. axis [1,1,-1]  

 cryst.   s(19) = (     0          0          1      )    f =( -0.5000000 )
                  (    -1          0          0      )       ( -0.5000000 )
                  (     0          1          0      )       (  0.0000000 )

 cart.    s(19) = (  0.0000000 -1.0000000  0.0000000 )    f =( -0.5000000 )
                  (  0.0000000  0.0000000  1.0000000 )       ( -0.5000000 )
                  (  1.0000000  0.0000000  0.0000000 )       (  0.0000000 )


      isym = 20     inv. 120 deg rotation - cart. axis [1,-1,1]  

 cryst.   s(20) = (     0          0         -1      )    f =(  0.5000000 )
                  (     1          0          0      )       (  0.0000000 )
                  (     0          1          0      )       ( -0.5000000 )

 cart.    s(20) = (  0.0000000  1.0000000  0.0000000 )    f =(  0.5000000 )
                  (  0.0000000  0.0000000  1.0000000 )       (  0.0000000 )
                  ( -1.0000000  0.0000000  0.0000000 )       ( -0.5000000 )


      isym = 21     inv. 120 deg rotation - cart. axis [1,1,1]   

 cryst.   s(21) = (     0         -1          0      )
                  (     0          0         -1      )
                  (    -1          0          0      )

 cart.    s(21) = (  0.0000000  0.0000000 -1.0000000 )
                  ( -1.0000000  0.0000000  0.0000000 )
                  (  0.0000000 -1.0000000  0.0000000 )


      isym = 22     inv. 120 deg rotation - cart. axis [-1,1,-1] 

 cryst.   s(22) = (     0          1          0      )    f =( -0.5000000 )
                  (     0          0          1      )       ( -0.5000000 )
                  (    -1          0          0      )       (  0.0000000 )

 cart.    s(22) = (  0.0000000  0.0000000 -1.0000000 )    f =( -0.5000000 )
                  (  1.0000000  0.0000000  0.0000000 )       ( -0.5000000 )
                  (  0.0000000  1.0000000  0.0000000 )       (  0.0000000 )


      isym = 23     inv. 120 deg rotation - cart. axis [1,-1,-1] 

 cryst.   s(23) = (     0          1          0      )    f =(  0.5000000 )
                  (     0          0         -1      )       (  0.0000000 )
                  (     1          0          0      )       ( -0.5000000 )

 cart.    s(23) = (  0.0000000  0.0000000  1.0000000 )    f =(  0.5000000 )
                  (  1.0000000  0.0000000  0.0000000 )       (  0.0000000 )
                  (  0.0000000 -1.0000000  0.0000000 )       ( -0.5000000 )


      isym = 24     inv. 120 deg rotation - cart. axis [-1,-1,1] 

 cryst.   s(24) = (     0         -1          0      )    f =(  0.0000000 )
                  (     0          0          1      )       ( -0.5000000 )
                  (     1          0          0      )       ( -0.5000000 )

 cart.    s(24) = (  0.0000000  0.0000000  1.0000000 )    f =(  0.0000000 )
                  ( -1.0000000  0.0000000  0.0000000 )       ( -0.5000000 )
                  (  0.0000000  1.0000000  0.0000000 )       ( -0.5000000 )


   Cartesian axes

     site n.     atom                  positions (alat units)
         1           Fe  tau(   1) = (   0.0000000   0.5000000   0.5000000  )
         2           Fe  tau(   2) = (   0.0000000   0.0000000   0.0000000  )
         3           Fe  tau(   3) = (   0.5000000   0.5000000   0.0000000  )
         4           Fe  tau(   4) = (   0.5000000   0.0000000   0.5000000  )
         5           S   tau(   5) = (   0.3853800   0.1146200   0.8853800  )
         6           S   tau(   6) = (   0.3853800   0.3853800   0.3853800  )
         7           S   tau(   7) = (   0.1146200   0.8853800   0.3853800  )
         8           S   tau(   8) = (   0.1146200   0.6146200   0.8853800  )
         9           S   tau(   9) = (   0.8853800   0.1146200   0.6146200  )
        10           S   tau(  10) = (   0.8853800   0.3853800   0.1146200  )
        11           S   tau(  11) = (   0.6146200   0.8853800   0.1146200  )
        12           S   tau(  12) = (   0.6146200   0.6146200   0.6146200  )

   Crystallographic axes

     site n.     atom                  positions (cryst. coord.)
         1           Fe  tau(   1) = (  0.0000000  0.5000000  0.5000000  )
         2           Fe  tau(   2) = (  0.0000000  0.0000000  0.0000000  )
         3           Fe  tau(   3) = (  0.5000000  0.5000000  0.0000000  )
         4           Fe  tau(   4) = (  0.5000000  0.0000000  0.5000000  )
         5           S   tau(   5) = (  0.3853800  0.1146200  0.8853800  )
         6           S   tau(   6) = (  0.3853800  0.3853800  0.3853800  )
         7           S   tau(   7) = (  0.1146200  0.8853800  0.3853800  )
         8           S   tau(   8) = (  0.1146200  0.6146200  0.8853800  )
         9           S   tau(   9) = (  0.8853800  0.1146200  0.6146200  )
        10           S   tau(  10) = (  0.8853800  0.3853800  0.1146200  )
        11           S   tau(  11) = (  0.6146200  0.8853800  0.1146200  )
        12           S   tau(  12) = (  0.6146200  0.6146200  0.6146200  )

     number of k points=   101  Methfessel-Paxton smearing, width (Ry)=  0.0100
                       cart. coord. in units 2pi/alat
        k(    1) = (   0.5000000   0.2500000   0.7500000), wk =   0.0198020
        k(    2) = (   0.4750000   0.2625000   0.7125000), wk =   0.0198020
        k(    3) = (   0.4500000   0.2750000   0.6750000), wk =   0.0198020
        k(    4) = (   0.4250000   0.2875000   0.6375000), wk =   0.0198020
        k(    5) = (   0.4000000   0.3000000   0.6000000), wk =   0.0198020
        k(    6) = (   0.3750000   0.3125000   0.5625000), wk =   0.0198020
        k(    7) = (   0.3500000   0.3250000   0.5250000), wk =   0.0198020
        k(    8) = (   0.3250000   0.3375000   0.4875000), wk =   0.0198020
        k(    9) = (   0.3000000   0.3500000   0.4500000), wk =   0.0198020
        k(   10) = (   0.2750000   0.3625000   0.4125000), wk =   0.0198020
        k(   11) = (   0.2500000   0.3750000   0.3750000), wk =   0.0198020
        k(   12) = (   0.2250000   0.3875000   0.3375000), wk =   0.0198020
        k(   13) = (   0.2000000   0.4000000   0.3000000), wk =   0.0198020
        k(   14) = (   0.1750000   0.4125000   0.2625000), wk =   0.0198020
        k(   15) = (   0.1500000   0.4250000   0.2250000), wk =   0.0198020
        k(   16) = (   0.1250000   0.4375000   0.1875000), wk =   0.0198020
        k(   17) = (   0.1000000   0.4500000   0.1500000), wk =   0.0198020
        k(   18) = (   0.0750000   0.4625000   0.1125000), wk =   0.0198020
        k(   19) = (   0.0500000   0.4750000   0.0750000), wk =   0.0198020
        k(   20) = (   0.0250000   0.4875000   0.0375000), wk =   0.0198020
        k(   21) = (   0.0000000   0.5000000   0.0000000), wk =   0.0198020
        k(   22) = (   0.0000000   0.4750000   0.0000000), wk =   0.0198020
        k(   23) = (   0.0000000   0.4500000   0.0000000), wk =   0.0198020
        k(   24) = (   0.0000000   0.4250000   0.0000000), wk =   0.0198020
        k(   25) = (   0.0000000   0.4000000   0.0000000), wk =   0.0198020
        k(   26) = (   0.0000000   0.3750000   0.0000000), wk =   0.0198020
        k(   27) = (   0.0000000   0.3500000   0.0000000), wk =   0.0198020
        k(   28) = (   0.0000000   0.3250000   0.0000000), wk =   0.0198020
        k(   29) = (   0.0000000   0.3000000   0.0000000), wk =   0.0198020
        k(   30) = (   0.0000000   0.2750000   0.0000000), wk =   0.0198020
        k(   31) = (   0.0000000   0.2500000   0.0000000), wk =   0.0198020
        k(   32) = (   0.0000000   0.2250000   0.0000000), wk =   0.0198020
        k(   33) = (   0.0000000   0.2000000   0.0000000), wk =   0.0198020
        k(   34) = (   0.0000000   0.1750000   0.0000000), wk =   0.0198020
        k(   35) = (   0.0000000   0.1500000   0.0000000), wk =   0.0198020
        k(   36) = (   0.0000000   0.1250000   0.0000000), wk =   0.0198020
        k(   37) = (   0.0000000   0.1000000   0.0000000), wk =   0.0198020
        k(   38) = (   0.0000000   0.0750000   0.0000000), wk =   0.0198020
        k(   39) = (   0.0000000   0.0500000   0.0000000), wk =   0.0198020
        k(   40) = (   0.0000000   0.0250000   0.0000000), wk =   0.0198020
        k(   41) = (   0.0000000   0.0000000   0.0000000), wk =   0.0198020
        k(   42) = (   0.0000000   0.0250000   0.0250000), wk =   0.0198020
        k(   43) = (   0.0000000   0.0500000   0.0500000), wk =   0.0198020
        k(   44) = (   0.0000000   0.0750000   0.0750000), wk =   0.0198020
        k(   45) = (   0.0000000   0.1000000   0.1000000), wk =   0.0198020
        k(   46) = (   0.0000000   0.1250000   0.1250000), wk =   0.0198020
        k(   47) = (   0.0000000   0.1500000   0.1500000), wk =   0.0198020
        k(   48) = (   0.0000000   0.1750000   0.1750000), wk =   0.0198020
        k(   49) = (   0.0000000   0.2000000   0.2000000), wk =   0.0198020
        k(   50) = (   0.0000000   0.2250000   0.2250000), wk =   0.0198020
        k(   51) = (   0.0000000   0.2500000   0.2500000), wk =   0.0198020
        k(   52) = (   0.0000000   0.2750000   0.2750000), wk =   0.0198020
        k(   53) = (   0.0000000   0.3000000   0.3000000), wk =   0.0198020
        k(   54) = (   0.0000000   0.3250000   0.3250000), wk =   0.0198020
        k(   55) = (   0.0000000   0.3500000   0.3500000), wk =   0.0198020
        k(   56) = (   0.0000000   0.3750000   0.3750000), wk =   0.0198020
        k(   57) = (   0.0000000   0.4000000   0.4000000), wk =   0.0198020
        k(   58) = (   0.0000000   0.4250000   0.4250000), wk =   0.0198020
        k(   59) = (   0.0000000   0.4500000   0.4500000), wk =   0.0198020
        k(   60) = (   0.0000000   0.4750000   0.4750000), wk =   0.0198020
        k(   61) = (   0.0000000   0.5000000   0.5000000), wk =   0.0198020
        k(   62) = (   0.0375000   0.5000000   0.4875000), wk =   0.0198020
        k(   63) = (   0.0750000   0.5000000   0.4750000), wk =   0.0198020
        k(   64) = (   0.1125000   0.5000000   0.4625000), wk =   0.0198020
        k(   65) = (   0.1500000   0.5000000   0.4500000), wk =   0.0198020
        k(   66) = (   0.1875000   0.5000000   0.4375000), wk =   0.0198020
        k(   67) = (   0.2250000   0.5000000   0.4250000), wk =   0.0198020
        k(   68) = (   0.2625000   0.5000000   0.4125000), wk =   0.0198020
        k(   69) = (   0.3000000   0.5000000   0.4000000), wk =   0.0198020
        k(   70) = (   0.3375000   0.5000000   0.3875000), wk =   0.0198020
        k(   71) = (   0.3750000   0.5000000   0.3750000), wk =   0.0198020
        k(   72) = (   0.4125000   0.5000000   0.3625000), wk =   0.0198020
        k(   73) = (   0.4500000   0.5000000   0.3500000), wk =   0.0198020
        k(   74) = (   0.4875000   0.5000000   0.3375000), wk =   0.0198020
        k(   75) = (   0.5250000   0.5000000   0.3250000), wk =   0.0198020
        k(   76) = (   0.5625000   0.5000000   0.3125000), wk =   0.0198020
        k(   77) = (   0.6000000   0.5000000   0.3000000), wk =   0.0198020
        k(   78) = (   0.6375000   0.5000000   0.2875000), wk =   0.0198020
        k(   79) = (   0.6750000   0.5000000   0.2750000), wk =   0.0198020
        k(   80) = (   0.7125000   0.5000000   0.2625000), wk =   0.0198020
        k(   81) = (   0.7500000   0.5000000   0.2500000), wk =   0.0198020
        k(   82) = (   0.7500000   0.4937500   0.2562500), wk =   0.0198020
        k(   83) = (   0.7500000   0.4875000   0.2625000), wk =   0.0198020
        k(   84) = (   0.7500000   0.4812500   0.2687500), wk =   0.0198020
        k(   85) = (   0.7500000   0.4750000   0.2750000), wk =   0.0198020
        k(   86) = (   0.7500000   0.4687500   0.2812500), wk =   0.0198020
        k(   87) = (   0.7500000   0.4625000   0.2875000), wk =   0.0198020
        k(   88) = (   0.7500000   0.4562500   0.2937500), wk =   0.0198020
        k(   89) = (   0.7500000   0.4500000   0.3000000), wk =   0.0198020
        k(   90) = (   0.7500000   0.4437500   0.3062500), wk =   0.0198020
        k(   91) = (   0.7500000   0.4375000   0.3125000), wk =   0.0198020
        k(   92) = (   0.7500000   0.4312500   0.3187500), wk =   0.0198020
        k(   93) = (   0.7500000   0.4250000   0.3250000), wk =   0.0198020
        k(   94) = (   0.7500000   0.4187500   0.3312500), wk =   0.0198020
        k(   95) = (   0.7500000   0.4125000   0.3375000), wk =   0.0198020
        k(   96) = (   0.7500000   0.4062500   0.3437500), wk =   0.0198020
        k(   97) = (   0.7500000   0.4000000   0.3500000), wk =   0.0198020
        k(   98) = (   0.7500000   0.3937500   0.3562500), wk =   0.0198020
        k(   99) = (   0.7500000   0.3875000   0.3625000), wk =   0.0198020
        k(  100) = (   0.7500000   0.3812500   0.3687500), wk =   0.0198020
        k(  101) = (   0.7500000   0.3750000   0.3750000), wk =   0.0198020

                       cryst. coord.
        k(    1) = (   0.5000000   0.2500000   0.7500000), wk =   0.0198020
        k(    2) = (   0.4750000   0.2625000   0.7125000), wk =   0.0198020
        k(    3) = (   0.4500000   0.2750000   0.6750000), wk =   0.0198020
        k(    4) = (   0.4250000   0.2875000   0.6375000), wk =   0.0198020
        k(    5) = (   0.4000000   0.3000000   0.6000000), wk =   0.0198020
        k(    6) = (   0.3750000   0.3125000   0.5625000), wk =   0.0198020
        k(    7) = (   0.3500000   0.3250000   0.5250000), wk =   0.0198020
        k(    8) = (   0.3250000   0.3375000   0.4875000), wk =   0.0198020
        k(    9) = (   0.3000000   0.3500000   0.4500000), wk =   0.0198020
        k(   10) = (   0.2750000   0.3625000   0.4125000), wk =   0.0198020
        k(   11) = (   0.2500000   0.3750000   0.3750000), wk =   0.0198020
        k(   12) = (   0.2250000   0.3875000   0.3375000), wk =   0.0198020
        k(   13) = (   0.2000000   0.4000000   0.3000000), wk =   0.0198020
        k(   14) = (   0.1750000   0.4125000   0.2625000), wk =   0.0198020
        k(   15) = (   0.1500000   0.4250000   0.2250000), wk =   0.0198020
        k(   16) = (   0.1250000   0.4375000   0.1875000), wk =   0.0198020
        k(   17) = (   0.1000000   0.4500000   0.1500000), wk =   0.0198020
        k(   18) = (   0.0750000   0.4625000   0.1125000), wk =   0.0198020
        k(   19) = (   0.0500000   0.4750000   0.0750000), wk =   0.0198020
        k(   20) = (   0.0250000   0.4875000   0.0375000), wk =   0.0198020
        k(   21) = (   0.0000000   0.5000000   0.0000000), wk =   0.0198020
        k(   22) = (   0.0000000   0.4750000   0.0000000), wk =   0.0198020
        k(   23) = (   0.0000000   0.4500000   0.0000000), wk =   0.0198020
        k(   24) = (   0.0000000   0.4250000   0.0000000), wk =   0.0198020
        k(   25) = (   0.0000000   0.4000000   0.0000000), wk =   0.0198020
        k(   26) = (   0.0000000   0.3750000   0.0000000), wk =   0.0198020
        k(   27) = (   0.0000000   0.3500000   0.0000000), wk =   0.0198020
        k(   28) = (   0.0000000   0.3250000   0.0000000), wk =   0.0198020
        k(   29) = (   0.0000000   0.3000000   0.0000000), wk =   0.0198020
        k(   30) = (   0.0000000   0.2750000   0.0000000), wk =   0.0198020
        k(   31) = (   0.0000000   0.2500000   0.0000000), wk =   0.0198020
        k(   32) = (   0.0000000   0.2250000   0.0000000), wk =   0.0198020
        k(   33) = (   0.0000000   0.2000000   0.0000000), wk =   0.0198020
        k(   34) = (   0.0000000   0.1750000   0.0000000), wk =   0.0198020
        k(   35) = (   0.0000000   0.1500000   0.0000000), wk =   0.0198020
        k(   36) = (   0.0000000   0.1250000   0.0000000), wk =   0.0198020
        k(   37) = (   0.0000000   0.1000000   0.0000000), wk =   0.0198020
        k(   38) = (   0.0000000   0.0750000   0.0000000), wk =   0.0198020
        k(   39) = (   0.0000000   0.0500000   0.0000000), wk =   0.0198020
        k(   40) = (   0.0000000   0.0250000   0.0000000), wk =   0.0198020
        k(   41) = (   0.0000000   0.0000000   0.0000000), wk =   0.0198020
        k(   42) = (   0.0000000   0.0250000   0.0250000), wk =   0.0198020
        k(   43) = (   0.0000000   0.0500000   0.0500000), wk =   0.0198020
        k(   44) = (   0.0000000   0.0750000   0.0750000), wk =   0.0198020
        k(   45) = (   0.0000000   0.1000000   0.1000000), wk =   0.0198020
        k(   46) = (   0.0000000   0.1250000   0.1250000), wk =   0.0198020
        k(   47) = (   0.0000000   0.1500000   0.1500000), wk =   0.0198020
        k(   48) = (   0.0000000   0.1750000   0.1750000), wk =   0.0198020
        k(   49) = (   0.0000000   0.2000000   0.2000000), wk =   0.0198020
        k(   50) = (   0.0000000   0.2250000   0.2250000), wk =   0.0198020
        k(   51) = (   0.0000000   0.2500000   0.2500000), wk =   0.0198020
        k(   52) = (   0.0000000   0.2750000   0.2750000), wk =   0.0198020
        k(   53) = (   0.0000000   0.3000000   0.3000000), wk =   0.0198020
        k(   54) = (   0.0000000   0.3250000   0.3250000), wk =   0.0198020
        k(   55) = (   0.0000000   0.3500000   0.3500000), wk =   0.0198020
        k(   56) = (   0.0000000   0.3750000   0.3750000), wk =   0.0198020
        k(   57) = (   0.0000000   0.4000000   0.4000000), wk =   0.0198020
        k(   58) = (   0.0000000   0.4250000   0.4250000), wk =   0.0198020
        k(   59) = (   0.0000000   0.4500000   0.4500000), wk =   0.0198020
        k(   60) = (   0.0000000   0.4750000   0.4750000), wk =   0.0198020
        k(   61) = (   0.0000000   0.5000000   0.5000000), wk =   0.0198020
        k(   62) = (   0.0375000   0.5000000   0.4875000), wk =   0.0198020
        k(   63) = (   0.0750000   0.5000000   0.4750000), wk =   0.0198020
        k(   64) = (   0.1125000   0.5000000   0.4625000), wk =   0.0198020
        k(   65) = (   0.1500000   0.5000000   0.4500000), wk =   0.0198020
        k(   66) = (   0.1875000   0.5000000   0.4375000), wk =   0.0198020
        k(   67) = (   0.2250000   0.5000000   0.4250000), wk =   0.0198020
        k(   68) = (   0.2625000   0.5000000   0.4125000), wk =   0.0198020
        k(   69) = (   0.3000000   0.5000000   0.4000000), wk =   0.0198020
        k(   70) = (   0.3375000   0.5000000   0.3875000), wk =   0.0198020
        k(   71) = (   0.3750000   0.5000000   0.3750000), wk =   0.0198020
        k(   72) = (   0.4125000   0.5000000   0.3625000), wk =   0.0198020
        k(   73) = (   0.4500000   0.5000000   0.3500000), wk =   0.0198020
        k(   74) = (   0.4875000   0.5000000   0.3375000), wk =   0.0198020
        k(   75) = (   0.5250000   0.5000000   0.3250000), wk =   0.0198020
        k(   76) = (   0.5625000   0.5000000   0.3125000), wk =   0.0198020
        k(   77) = (   0.6000000   0.5000000   0.3000000), wk =   0.0198020
        k(   78) = (   0.6375000   0.5000000   0.2875000), wk =   0.0198020
        k(   79) = (   0.6750000   0.5000000   0.2750000), wk =   0.0198020
        k(   80) = (   0.7125000   0.5000000   0.2625000), wk =   0.0198020
        k(   81) = (   0.7500000   0.5000000   0.2500000), wk =   0.0198020
        k(   82) = (   0.7500000   0.4937500   0.2562500), wk =   0.0198020
        k(   83) = (   0.7500000   0.4875000   0.2625000), wk =   0.0198020
        k(   84) = (   0.7500000   0.4812500   0.2687500), wk =   0.0198020
        k(   85) = (   0.7500000   0.4750000   0.2750000), wk =   0.0198020
        k(   86) = (   0.7500000   0.4687500   0.2812500), wk =   0.0198020
        k(   87) = (   0.7500000   0.4625000   0.2875000), wk =   0.0198020
        k(   88) = (   0.7500000   0.4562500   0.2937500), wk =   0.0198020
        k(   89) = (   0.7500000   0.4500000   0.3000000), wk =   0.0198020
        k(   90) = (   0.7500000   0.4437500   0.3062500), wk =   0.0198020
        k(   91) = (   0.7500000   0.4375000   0.3125000), wk =   0.0198020
        k(   92) = (   0.7500000   0.4312500   0.3187500), wk =   0.0198020
        k(   93) = (   0.7500000   0.4250000   0.3250000), wk =   0.0198020
        k(   94) = (   0.7500000   0.4187500   0.3312500), wk =   0.0198020
        k(   95) = (   0.7500000   0.4125000   0.3375000), wk =   0.0198020
        k(   96) = (   0.7500000   0.4062500   0.3437500), wk =   0.0198020
        k(   97) = (   0.7500000   0.4000000   0.3500000), wk =   0.0198020
        k(   98) = (   0.7500000   0.3937500   0.3562500), wk =   0.0198020
        k(   99) = (   0.7500000   0.3875000   0.3625000), wk =   0.0198020
        k(  100) = (   0.7500000   0.3812500   0.3687500), wk =   0.0198020
        k(  101) = (   0.7500000   0.3750000   0.3750000), wk =   0.0198020

     Dense  grid:   197909 G-vectors     FFT dimensions: (  80,  80,  80)

     Smooth grid:    85735 G-vectors     FFT dimensions: (  60,  60,  60)

     Dynamical RAM for                 wfc:       1.37 MB

     Dynamical RAM for     wfc (w. buffer):     140.02 MB

     Dynamical RAM for           str. fact:       0.60 MB

     Dynamical RAM for           local pot:       0.00 MB

     Dynamical RAM for          nlocal pot:       3.53 MB

     Dynamical RAM for                qrad:       3.57 MB

     Dynamical RAM for          rho,v,vnew:       2.08 MB

     Dynamical RAM for           G-vectors:       1.20 MB

     Dynamical RAM for          h,s,v(r/c):       1.29 MB

     Dynamical RAM for          <psi|beta>:       0.28 MB

     Dynamical RAM for                 psi:       2.75 MB

     Dynamical RAM for                hpsi:       2.75 MB

     Dynamical RAM for                spsi:       2.75 MB

     Dynamical RAM for      wfcinit/wfcrot:       2.91 MB

     Dynamical RAM for           addusdens:      58.59 MB

     Estimated static dynamical RAM per process >     153.86 MB

     Estimated max dynamical RAM per process >     212.45 MB

     Estimated total dynamical RAM >       2.07 GB

     The potential is recalculated from file :
     ./work/pwscf.save/charge-density

     Starting wfcs are   72 randomized atomic wfcs +   12 random wfcs
     Checking if some PAW data can be deallocated... 
       PAW data deallocated on    2 nodes for type:  1
       PAW data deallocated on    8 nodes for type:  2

     Band Structure Calculation
     Davidson diagonalization with overlap

     Computing kpt #:     1  of   101
     total cpu time spent up to now is        3.4 secs

     Computing kpt #:     2  of   101
     total cpu time spent up to now is        5.0 secs

     Computing kpt #:     3  of   101
     total cpu time spent up to now is        6.4 secs

     Computing kpt #:     4  of   101
     total cpu time spent up to now is        7.9 secs

     Computing kpt #:     5  of   101
     total cpu time spent up to now is        9.5 secs

     Computing kpt #:     6  of   101
     total cpu time spent up to now is       11.1 secs

     Computing kpt #:     7  of   101
     total cpu time spent up to now is       12.6 secs

     Computing kpt #:     8  of   101
     total cpu time spent up to now is       14.1 secs

     Computing kpt #:     9  of   101
     total cpu time spent up to now is       15.7 secs

     Computing kpt #:    10  of   101
     total cpu time spent up to now is       17.2 secs

     Computing kpt #:    11  of   101
     total cpu time spent up to now is       18.8 secs

     Computing kpt #:    12  of   101
     total cpu time spent up to now is       20.7 secs

     Computing kpt #:    13  of   101
     total cpu time spent up to now is       22.3 secs

     Computing kpt #:    14  of   101
     total cpu time spent up to now is       23.9 secs

     Computing kpt #:    15  of   101
     total cpu time spent up to now is       25.5 secs

     Computing kpt #:    16  of   101
     total cpu time spent up to now is       27.0 secs

     Computing kpt #:    17  of   101
     total cpu time spent up to now is       28.4 secs

     Computing kpt #:    18  of   101
     total cpu time spent up to now is       29.8 secs

     Computing kpt #:    19  of   101
     total cpu time spent up to now is       31.3 secs

     Computing kpt #:    20  of   101
     total cpu time spent up to now is       32.7 secs

     Computing kpt #:    21  of   101
     total cpu time spent up to now is       34.0 secs

     Computing kpt #:    22  of   101
     total cpu time spent up to now is       35.4 secs

     Computing kpt #:    23  of   101
     total cpu time spent up to now is       36.8 secs

     Computing kpt #:    24  of   101
     total cpu time spent up to now is       38.2 secs

     Computing kpt #:    25  of   101
     total cpu time spent up to now is       39.7 secs

     Computing kpt #:    26  of   101
     total cpu time spent up to now is       41.3 secs

     Computing kpt #:    27  of   101
     total cpu time spent up to now is       43.0 secs

     Computing kpt #:    28  of   101
     total cpu time spent up to now is       44.7 secs

     Computing kpt #:    29  of   101
     total cpu time spent up to now is       46.8 secs

     Computing kpt #:    30  of   101
     total cpu time spent up to now is       49.0 secs

     Computing kpt #:    31  of   101
     total cpu time spent up to now is       50.6 secs

     Computing kpt #:    32  of   101
     total cpu time spent up to now is       52.2 secs

     Computing kpt #:    33  of   101
     total cpu time spent up to now is       53.7 secs

     Computing kpt #:    34  of   101
     total cpu time spent up to now is       55.2 secs

     Computing kpt #:    35  of   101
     total cpu time spent up to now is       56.9 secs

     Computing kpt #:    36  of   101
     total cpu time spent up to now is       58.6 secs

     Computing kpt #:    37  of   101
     total cpu time spent up to now is       60.5 secs

     Computing kpt #:    38  of   101
     total cpu time spent up to now is       62.5 secs

     Computing kpt #:    39  of   101
     total cpu time spent up to now is       65.1 secs

     Computing kpt #:    40  of   101
     c_bands:  1 eigenvalues not converged
     total cpu time spent up to now is       68.2 secs

     Computing kpt #:    41  of   101
     total cpu time spent up to now is       69.9 secs

     Computing kpt #:    42  of   101
     total cpu time spent up to now is       72.6 secs

     Computing kpt #:    43  of   101
     total cpu time spent up to now is       74.6 secs

     Computing kpt #:    44  of   101
     total cpu time spent up to now is       76.5 secs

     Computing kpt #:    45  of   101
     total cpu time spent up to now is       78.1 secs

     Computing kpt #:    46  of   101
     total cpu time spent up to now is       79.7 secs

     Computing kpt #:    47  of   101
     total cpu time spent up to now is       81.3 secs

     Computing kpt #:    48  of   101
     total cpu time spent up to now is       83.0 secs

     Computing kpt #:    49  of   101
     total cpu time spent up to now is       84.7 secs

     Computing kpt #:    50  of   101
     total cpu time spent up to now is       86.2 secs

     Computing kpt #:    51  of   101
     total cpu time spent up to now is       88.2 secs

     Computing kpt #:    52  of   101
     total cpu time spent up to now is       90.2 secs

     Computing kpt #:    53  of   101
     total cpu time spent up to now is       92.1 secs

     Computing kpt #:    54  of   101
     total cpu time spent up to now is       94.1 secs

     Computing kpt #:    55  of   101
     total cpu time spent up to now is       95.8 secs

     Computing kpt #:    56  of   101
     total cpu time spent up to now is       97.4 secs

     Computing kpt #:    57  of   101
     total cpu time spent up to now is       98.8 secs

     Computing kpt #:    58  of   101
     total cpu time spent up to now is      100.2 secs

     Computing kpt #:    59  of   101
     total cpu time spent up to now is      101.5 secs

     Computing kpt #:    60  of   101
     total cpu time spent up to now is      102.7 secs

     Computing kpt #:    61  of   101
     total cpu time spent up to now is      103.9 secs

     Computing kpt #:    62  of   101
     total cpu time spent up to now is      105.1 secs

     Computing kpt #:    63  of   101
     total cpu time spent up to now is      106.3 secs

     Computing kpt #:    64  of   101
     total cpu time spent up to now is      107.5 secs

     Computing kpt #:    65  of   101
     total cpu time spent up to now is      108.6 secs

     Computing kpt #:    66  of   101
     total cpu time spent up to now is      109.9 secs

     Computing kpt #:    67  of   101
     total cpu time spent up to now is      111.3 secs

     Computing kpt #:    68  of   101
     total cpu time spent up to now is      112.8 secs

     Computing kpt #:    69  of   101
     total cpu time spent up to now is      114.3 secs

     Computing kpt #:    70  of   101
     total cpu time spent up to now is      115.9 secs

     Computing kpt #:    71  of   101
     total cpu time spent up to now is      117.4 secs

     Computing kpt #:    72  of   101
     total cpu time spent up to now is      119.0 secs

     Computing kpt #:    73  of   101
     total cpu time spent up to now is      120.4 secs

     Computing kpt #:    74  of   101
     total cpu time spent up to now is      121.9 secs

     Computing kpt #:    75  of   101
     total cpu time spent up to now is      123.2 secs

     Computing kpt #:    76  of   101
     total cpu time spent up to now is      124.6 secs

     Computing kpt #:    77  of   101
     total cpu time spent up to now is      126.0 secs

     Computing kpt #:    78  of   101
     total cpu time spent up to now is      127.5 secs

     Computing kpt #:    79  of   101
     total cpu time spent up to now is      129.0 secs

     Computing kpt #:    80  of   101
     total cpu time spent up to now is      130.5 secs

     Computing kpt #:    81  of   101
     total cpu time spent up to now is      132.2 secs

     Computing kpt #:    82  of   101
     total cpu time spent up to now is      133.8 secs

     Computing kpt #:    83  of   101
     total cpu time spent up to now is      135.3 secs

     Computing kpt #:    84  of   101
     total cpu time spent up to now is      137.0 secs

     Computing kpt #:    85  of   101
     total cpu time spent up to now is      138.7 secs

     Computing kpt #:    86  of   101
     total cpu time spent up to now is      140.2 secs

     Computing kpt #:    87  of   101
     total cpu time spent up to now is      141.8 secs

     Computing kpt #:    88  of   101
     total cpu time spent up to now is      143.2 secs

     Computing kpt #:    89  of   101
     total cpu time spent up to now is      144.6 secs

     Computing kpt #:    90  of   101
     total cpu time spent up to now is      146.1 secs

     Computing kpt #:    91  of   101
     total cpu time spent up to now is      147.6 secs

     Computing kpt #:    92  of   101
     total cpu time spent up to now is      149.0 secs

     Computing kpt #:    93  of   101
     total cpu time spent up to now is      150.5 secs

     Computing kpt #:    94  of   101
     total cpu time spent up to now is      151.9 secs

     Computing kpt #:    95  of   101
     total cpu time spent up to now is      153.3 secs

     Computing kpt #:    96  of   101
     total cpu time spent up to now is      154.7 secs

     Computing kpt #:    97  of   101
     total cpu time spent up to now is      156.2 secs

     Computing kpt #:    98  of   101
     total cpu time spent up to now is      157.6 secs

     Computing kpt #:    99  of   101
     total cpu time spent up to now is      159.3 secs

     Computing kpt #:   100  of   101
     total cpu time spent up to now is      160.8 secs

     Computing kpt #:   101  of   101
     total cpu time spent up to now is      162.3 secs

     ethr =  7.86E-07,  avg # of iterations = 32.1

     total cpu time spent up to now is      162.3 secs

     End of band structure calculation

          k = 0.5000 0.2500 0.7500 ( 10730 PWs)   bands (ev):

   -73.4077 -73.4077 -73.4076 -73.4076 -39.7149 -39.7149 -39.7144 -39.7144
   -39.7131 -39.7131 -39.7126 -39.7126 -39.4649 -39.4649 -39.4647 -39.4647
    -2.9547  -2.9547  -2.2071  -2.2071   0.4207   0.4207   0.7454   0.7454
     5.4736   5.4736   6.3626   6.3626   6.5498   6.5498   7.8825   7.8825
     8.4062   8.4062   8.6938   8.6938   9.3799   9.3799   9.8817   9.8817
    10.0576  10.0576  10.6305  10.6305  11.7562  11.7562  11.9076  11.9076
    11.9674  11.9674  12.1633  12.1633  12.3985  12.3985  12.5417  12.5417
    14.1591  14.1591  14.5955  14.5955  14.7985  14.7985  15.2066  15.2066
    15.6613  15.6613  16.0429  16.0429  19.1582  19.1582  19.5871  19.5871
    19.9027  19.9027  20.8898  20.8898  21.1786  21.1786  21.8189  21.8189
    22.2764  22.2764  22.8800  22.8801

          k = 0.4750 0.2625 0.7125 ( 10720 PWs)   bands (ev):

   -73.4077 -73.4076 -73.4076 -73.4076 -39.7149 -39.7148 -39.7145 -39.7145
   -39.7130 -39.7129 -39.7126 -39.7126 -39.4648 -39.4648 -39.4647 -39.4647
    -2.9502  -2.8200  -2.2520  -2.2427   0.3733   0.3898   0.6671   0.6905
     5.4977   5.5604   6.2998   6.3593   6.6119   6.6634   7.8741   7.9552
     8.2708   8.4204   8.6662   8.7005   9.4366   9.4848   9.9192   9.9598
    10.0875  10.0920  10.5875  10.7166  11.7171  11.7446  11.8412  11.8920
    11.9341  11.9516  12.1394  12.1706  12.3574  12.3935  12.5135  12.5306
    14.1208  14.2087  14.5813  14.6059  14.7396  14.7568  15.1839  15.2109
    15.6590  15.6977  16.0247  16.0609  19.0952  19.1481  19.5503  19.7365
    19.9251  20.0896  20.8807  20.9604  21.0028  21.1527  21.6614  21.7049
    22.2104  22.2384  22.7352  22.7905

          k = 0.4500 0.2750 0.6750 ( 10716 PWs)   bands (ev):

   -73.4076 -73.4076 -73.4076 -73.4076 -39.7150 -39.7148 -39.7146 -39.7145
   -39.7129 -39.7128 -39.7126 -39.7125 -39.4648 -39.4648 -39.4647 -39.4647
    -2.9341  -2.6891  -2.3101  -2.2733   0.3332   0.3646   0.5839   0.6423
     5.5224   5.6695   6.1969   6.3431   6.6957   6.8459   7.7795   7.9790
     8.2143   8.4397   8.6236   8.6725   9.5225   9.6011   9.9317   9.9748
    10.1113  10.2167  10.5418  10.7767  11.6704  11.7228  11.8180  11.8642
    11.8933  11.9510  12.1088  12.1637  12.3150  12.3965  12.4747  12.5086
    14.0871  14.2512  14.5364  14.5641  14.7201  14.7818  15.1617  15.2150
    15.6555  15.7250  16.0165  16.0783  19.0690  19.1466  19.4808  19.9085
    20.0129  20.3661  20.7180  20.8456  21.0795  21.1387  21.4441  21.6840
    22.1501  22.2107  22.5610  22.6702

          k = 0.4250 0.2875 0.6375 ( 10703 PWs)   bands (ev):

   -73.4076 -73.4076 -73.4076 -73.4076 -39.7150 -39.7148 -39.7146 -39.7145
   -39.7128 -39.7128 -39.7125 -39.7125 -39.4648 -39.4647 -39.4647 -39.4647
    -2.9069  -2.5681  -2.3813  -2.2976   0.3028   0.3457   0.5075   0.5999
     5.5511   5.7917   6.0978   6.3279   6.7673   7.0567   7.5959   7.9857
     8.2268   8.4607   8.5750   8.6088   9.6224   9.7266   9.8954  10.0180
    10.1414  10.3357  10.4979  10.8038  11.6245  11.7134  11.8094  11.8326
    11.8607  11.9616  12.0671  12.1406  12.2777  12.4057  12.4321  12.4823
    14.0641  14.2877  14.4583  14.5003  14.7539  14.8248  15.1448  15.2086
    15.6575  15.7524  16.0142  16.0864  19.0756  19.1815  19.4063  20.0782
    20.1259  20.5308  20.6363  20.7543  21.0666  21.1928  21.2825  21.7427
    22.0623  22.0813  22.4131  22.6279

          k = 0.4000 0.3000 0.6000 ( 10708 PWs)   bands (ev):

   -73.4076 -73.4076 -73.4076 -73.4076 -39.7150 -39.7148 -39.7147 -39.7146
   -39.7128 -39.7127 -39.7125 -39.7124 -39.4648 -39.4647 -39.4647 -39.4647
    -2.8689  -2.4679  -2.4604  -2.3147   0.2824   0.3274   0.4566   0.5631
     5.5849   5.8807   6.0498   6.3160   6.8209   7.2234   7.4386   7.9937
     8.2235   8.4540   8.5407   8.5544   9.7115   9.8477   9.8613  10.0526
    10.1855  10.3697  10.5044  10.7995  11.6032  11.7009  11.7881  11.8110
    11.8568  11.9740  12.0181  12.1034  12.2578  12.3910  12.4182  12.4599
    14.0583  14.3199  14.3656  14.4492  14.8029  14.8587  15.1390  15.1877
    15.6763  15.7772  16.0155  16.0800  19.0978  19.2695  19.3353  20.1490
    20.2213  20.4167  20.5827  20.9005  21.0504  21.1801  21.3736  21.7859
    21.9377  21.9503  22.3029  22.6091

          k = 0.3750 0.3125 0.5625 ( 10718 PWs)   bands (ev):

   -73.4076 -73.4076 -73.4076 -73.4076 -39.7151 -39.7149 -39.7147 -39.7146
   -39.7128 -39.7127 -39.7125 -39.7125 -39.4648 -39.4648 -39.4647 -39.4647
    -2.8210  -2.5565  -2.3842  -2.3242   0.2720   0.3033   0.4478   0.5326
     5.6237   5.8379   6.1418   6.3086   6.8518   7.1004   7.5750   7.9965
     8.1900   8.3613   8.5483   8.5622   9.7600   9.8123   9.9828  10.0877
    10.2173  10.3127  10.5639  10.7712  11.6099  11.6804  11.7731  11.8026
    11.8617  11.9361  12.0188  12.0659  12.2627  12.3575  12.4276  12.4475
    14.0729  14.2688  14.3570  14.4188  14.8399  14.8779  15.1425  15.1628
    15.7101  15.7903  16.0197  16.0618  19.1233  19.2651  19.4073  20.0488
    20.1815  20.4168  20.6492  20.8904  21.0207  21.3008  21.5263  21.7741
    21.8343  21.8586  22.2973  22.5371

          k = 0.3500 0.3250 0.5250 ( 10718 PWs)   bands (ev):

   -73.4076 -73.4076 -73.4076 -73.4076 -39.7150 -39.7150 -39.7147 -39.7147
   -39.7127 -39.7127 -39.7125 -39.7125 -39.4648 -39.4648 -39.4647 -39.4647
    -2.7640  -2.6545  -2.3357  -2.3259   0.2732   0.2856   0.4727   0.5099
     5.6665   5.7535   6.2575   6.3055   6.8584   6.9269   7.7818   7.9604
     8.1777   8.2588   8.5736   8.5808   9.7567   9.7753  10.0971  10.1331
    10.1924  10.2379  10.6273  10.7206  11.6350  11.6639  11.7772  11.7976
    11.8610  11.8859  12.0438  12.0520  12.2887  12.3298  12.4364  12.4450
    14.1086  14.1878  14.3926  14.4108  14.8551  14.8748  15.1477  15.1540
    15.7451  15.7813  16.0265  16.0422  19.1440  19.1965  19.5765  19.8378
    20.2091  20.3500  20.7990  20.9191  21.0210  21.1834  21.6527  21.6767
    21.8564  21.8670  22.3975  22.4616

          k = 0.3250 0.3375 0.4875 ( 10713 PWs)   bands (ev):

   -73.4076 -73.4076 -73.4076 -73.4076 -39.7150 -39.7149 -39.7147 -39.7147
   -39.7127 -39.7127 -39.7125 -39.7125 -39.4648 -39.4648 -39.4647 -39.4647
    -2.7553  -2.6992  -2.3224  -2.3197   0.2837   0.2904   0.4982   0.5169
     5.6685   5.7115   6.2877   6.3082   6.8360   6.8600   7.8558   7.9396
     8.1972   8.2421   8.5902   8.5952   9.7227   9.7354  10.1139  10.1453
    10.1537  10.2094  10.6464  10.6973  11.6501  11.6650  11.7905  11.8016
    11.8600  11.8739  12.0646  12.0694  12.3075  12.3290  12.4447  12.4505
    14.1243  14.1637  14.4255  14.4317  14.8406  14.8528  15.1562  15.1628
    15.7453  15.7634  16.0311  16.0394  19.1339  19.1571  19.6361  19.7623
    20.2456  20.3290  20.8822  20.9244  21.0021  21.0575  21.5664  21.5968
    21.9861  21.9931  22.4423  22.4542

          k = 0.3000 0.3500 0.4500 ( 10707 PWs)   bands (ev):

   -73.4076 -73.4076 -73.4076 -73.4076 -39.7150 -39.7148 -39.7146 -39.7146
   -39.7128 -39.7127 -39.7125 -39.7125 -39.4648 -39.4648 -39.4647 -39.4647
    -2.8555  -2.6277  -2.3439  -2.3058   0.2954   0.3247   0.5031   0.5717
     5.5888   5.7547   6.1882   6.3218   6.7893   6.9438   7.7121   7.9917
     8.2017   8.3773   8.5852   8.6098   9.6523   9.7168   9.9890  10.0580
    10.1498  10.2898  10.5558  10.7663  11.6351  11.6962  11.7980  11.8258
    11.8566  11.9224  12.0734  12.1130  12.2901  12.3765  12.4415  12.4716
    14.0816  14.2355  14.4553  14.4768  14.7837  14.8359  15.1526  15.1916
    15.6903  15.7578  16.0223  16.0661  19.0884  19.1667  19.4798  19.9516
    20.1544  20.5128  20.6875  20.8091  21.0555  21.1397  21.3843  21.6526
    22.0697  22.1021  22.4226  22.5370

          k = 0.2750 0.3625 0.4125 ( 10703 PWs)   bands (ev):

   -73.4076 -73.4076 -73.4076 -73.4076 -39.7150 -39.7148 -39.7146 -39.7144
   -39.7129 -39.7128 -39.7125 -39.7125 -39.4648 -39.4647 -39.4647 -39.4647
    -2.9523  -2.5513  -2.3961  -2.2846   0.3167   0.3653   0.5352   0.6315
     5.5171   5.7816   6.0572   6.3366   6.7324   7.0946   7.5592   7.9714
     8.2422   8.5007   8.5815   8.6385   9.5746   9.7024   9.8326   9.9772
    10.1234  10.3343  10.4680  10.8262  11.6292  11.7276  11.8231  11.8463
    11.8729  11.9877  12.0733  12.1698  12.2778  12.4242  12.4351  12.4975
    14.0593  14.3202  14.4786  14.5367  14.7212  14.8029  15.1403  15.2249
    15.6318  15.7418  16.0063  16.1014  19.0678  19.1800  19.3830  20.0747
    20.1330  20.4610  20.6303  20.7637  21.0833  21.1577  21.3082  21.7998
    22.0681  22.0833  22.4512  22.7127

          k = 0.2500 0.3750 0.3750 ( 10699 PWs)   bands (ev):

   -73.4076 -73.4076 -73.4076 -73.4076 -39.7150 -39.7147 -39.7146 -39.7143
   -39.7130 -39.7129 -39.7125 -39.7124 -39.4648 -39.4647 -39.4647 -39.4646
    -3.0432  -2.4763  -2.4671  -2.2569   0.3453   0.3996   0.6002   0.6917
     5.4559   5.7424   5.9961   6.3533   6.6689   7.2389   7.4335   7.9265
     8.2588   8.5354   8.5757   8.7473   9.4997   9.6533   9.7111   9.8907
    10.0914  10.3054  10.4271  10.8719  11.6420  11.7573  11.8412  11.8811
    11.9066  12.0260  12.0929  12.2133  12.2821  12.4255  12.4669  12.5244
    14.0530  14.4065  14.4819  14.5921  14.6896  14.7583  15.1210  15.2576
    15.5838  15.7348  15.9816  16.1322  19.0719  19.2048  19.3479  19.9839
    20.2511  20.3074  20.5331  20.8089  21.0396  21.2192  21.4566  21.8788
    22.0039  22.1233  22.4928  22.9094

          k = 0.2250 0.3875 0.3375 ( 10708 PWs)   bands (ev):

   -73.4077 -73.4076 -73.4076 -73.4076 -39.7150 -39.7147 -39.7145 -39.7143
   -39.7131 -39.7130 -39.7126 -39.7125 -39.4648 -39.4647 -39.4647 -39.4647
    -3.1261  -2.5645  -2.3900  -2.2235   0.3790   0.4300   0.6858   0.7496
     5.4075   5.6363   6.0255   6.3669   6.6065   7.2038   7.4867   7.8731
     8.2239   8.5527   8.5756   8.8609   9.4289   9.5110   9.7057   9.8039
    10.0530  10.2328  10.4203  10.8971  11.6746  11.7854  11.8516  11.9187
    11.9552  12.0138  12.1504  12.2118  12.3209  12.4182  12.4976  12.5479
    14.0527  14.4296  14.5043  14.5883  14.7129  14.7700  15.0964  15.2881
    15.5558  15.7429  15.9541  16.1493  19.0918  19.2485  19.3650  19.8751
    20.0711  20.4125  20.5012  20.6592  21.0951  21.4350  21.6098  21.8457
    21.9345  22.3181  22.5229  23.0489

          k = 0.2000 0.4000 0.3000 ( 10713 PWs)   bands (ev):

   -73.4077 -73.4076 -73.4076 -73.4076 -39.7149 -39.7147 -39.7144 -39.7142
   -39.7132 -39.7131 -39.7126 -39.7125 -39.4649 -39.4648 -39.4647 -39.4646
    -3.1993  -2.6659  -2.3096  -2.1856   0.4158   0.4632   0.7686   0.8087
     5.3742   5.5296   6.0861   6.3675   6.5551   7.0791   7.5868   7.8427
     8.1672   8.5246   8.6223   8.9411   9.3301   9.4234   9.6843   9.7605
     9.9910  10.1800  10.4072  10.8937  11.7232  11.8040  11.8700  11.9452
    11.9966  12.0099  12.1837  12.2063  12.3583  12.4245  12.5132  12.5638
    14.0455  14.4033  14.4776  14.6424  14.6944  14.8938  15.0706  15.3169
    15.5505  15.7538  15.9380  16.1493  19.1126  19.3096  19.4159  19.7706
    19.8897  20.3565  20.5654  20.6369  21.1417  21.6267  21.7412  21.8033
    21.9795  22.4695  22.6466  23.0582

          k = 0.1750 0.4125 0.2625 ( 10728 PWs)   bands (ev):

   -73.4077 -73.4076 -73.4076 -73.4075 -39.7150 -39.7147 -39.7144 -39.7140
   -39.7134 -39.7132 -39.7127 -39.7126 -39.4649 -39.4648 -39.4647 -39.4647
    -3.2614  -2.7708  -2.2321  -2.1445   0.4548   0.5016   0.8226   0.8806
     5.3575   5.4471   6.1499   6.3448   6.5244   6.9627   7.5835   7.8499
     8.1654   8.4910   8.6498   8.9878   9.2276   9.3743   9.6288   9.7828
     9.9038  10.1590  10.3803  10.8547  11.7658  11.8231  11.8941  11.9471
    12.0042  12.0641  12.1650  12.2200  12.3868  12.4511  12.5151  12.5701
    14.0272  14.3661  14.4539  14.6518  14.7463  15.0099  15.0805  15.3451
    15.5587  15.7483  15.9522  16.1342  19.1196  19.3686  19.4693  19.6376
    19.8019  20.2354  20.6588  20.7321  21.1740  21.6428  21.8076  21.9060
    22.1522  22.5402  22.8832  22.9735

          k = 0.1500 0.4250 0.2250 ( 10725 PWs)   bands (ev):

   -73.4077 -73.4076 -73.4076 -73.4075 -39.7149 -39.7147 -39.7143 -39.7139
   -39.7135 -39.7133 -39.7127 -39.7127 -39.4649 -39.4648 -39.4647 -39.4647
    -3.3113  -2.8746  -2.1598  -2.1021   0.4960   0.5430   0.8567   0.9484
     5.3576   5.3956   6.1855   6.3093   6.5145   6.8703   7.5347   7.8069
     8.2740   8.4517   8.6354   9.0068   9.1688   9.3228   9.5873   9.7963
     9.8337  10.1578  10.3356  10.7766  11.7660  11.8633  11.9006  11.9636
    12.0233  12.1158  12.1504  12.2138  12.4159  12.4820  12.5136  12.5684
    14.0091  14.3169  14.4695  14.6239  14.8175  15.0247  15.2162  15.3744
    15.5654  15.7283  15.9952  16.1141  19.1059  19.3853  19.4336  19.5325
    19.8415  20.1860  20.7739  20.8301  21.2138  21.5722  21.8993  22.0471
    22.3467  22.6065  22.8425  23.1774

          k = 0.1250 0.4375 0.1875 ( 10726 PWs)   bands (ev):

   -73.4077 -73.4076 -73.4076 -73.4075 -39.7148 -39.7147 -39.7142 -39.7138
   -39.7135 -39.7134 -39.7128 -39.7127 -39.4649 -39.4649 -39.4647 -39.4646
    -3.3483  -2.9738  -2.0948  -2.0602   0.5391   0.5841   0.8809   0.9986
     5.3730   5.3773   6.1547   6.2732   6.5328   6.8078   7.5035   7.7432
     8.3956   8.4382   8.5735   8.9958   9.1705   9.2683   9.5599   9.7095
     9.8711  10.1637  10.2743  10.6612  11.7497  11.8395  11.9379  11.9996
    12.0438  12.1488  12.1662  12.2092  12.4330  12.5005  12.5308  12.5626
    14.0041  14.2760  14.4921  14.5869  14.8681  15.0435  15.3587  15.4072
    15.5632  15.7057  16.0463  16.1137  19.0762  19.2626  19.3987  19.4592
    19.9630  20.2374  20.8817  20.9383  21.2629  21.5115  22.0068  22.1857
    22.4923  22.6728  22.7994  23.1778

          k = 0.1000 0.4500 0.1500 ( 10724 PWs)   bands (ev):

   -73.4077 -73.4076 -73.4075 -73.4075 -39.7147 -39.7146 -39.7142 -39.7139
   -39.7135 -39.7134 -39.7128 -39.7128 -39.4650 -39.4649 -39.4647 -39.4646
    -3.3718  -3.0657  -2.0391  -2.0211   0.5824   0.6214   0.8996   1.0284
     5.3875   5.4048   6.0817   6.2025   6.5828   6.7708   7.5140   7.7021
     8.3426   8.4717   8.5914   8.9644   9.2073   9.2316   9.5385   9.6300
     9.9064  10.1599  10.2113  10.5185  11.7301  11.7955  11.9599  12.0158
    12.0933  12.1653  12.2090  12.2162  12.4343  12.5122  12.5555  12.5638
    14.0178  14.2474  14.4996  14.5461  14.9015  15.0725  15.4447  15.4628
    15.5636  15.6781  16.0930  16.1592  19.0390  19.1328  19.3312  19.3609
    20.1254  20.3504  20.9749  21.0684  21.3103  21.4740  22.1411  22.3092
    22.5743  22.7345  22.7957  23.0860

          k = 0.0750 0.4625 0.1125 ( 10712 PWs)   bands (ev):

   -73.4077 -73.4076 -73.4075 -73.4075 -39.7146 -39.7146 -39.7142 -39.7140
   -39.7133 -39.7133 -39.7128 -39.7128 -39.4649 -39.4649 -39.4646 -39.4646
    -3.3813  -3.1481  -1.9945  -1.9869   0.6228   0.6519   0.9172   1.0384
     5.4254   5.4471   5.9947   6.1003   6.6389   6.7497   7.5719   7.7018
     8.2691   8.3537   8.7129   8.9268   9.2085   9.2810   9.5179   9.5724
     9.9128  10.1266  10.1731  10.3738  11.7114  11.7510  11.9712  12.0154
    12.1524  12.1880  12.2311  12.2455  12.4338  12.5118  12.5675  12.5871
    14.0502  14.2300  14.4781  14.5098  14.9313  15.0925  15.4869  15.5073
    15.5818  15.6420  16.1628  16.2248  18.9948  19.0410  19.2089  19.2734
    20.3012  20.4697  21.0819  21.1966  21.3547  21.4634  22.2906  22.4173
    22.6038  22.6450  22.8812  23.0553

          k = 0.0500 0.4750 0.0750 ( 10712 PWs)   bands (ev):

   -73.4077 -73.4076 -73.4075 -73.4075 -39.7145 -39.7145 -39.7143 -39.7141
   -39.7132 -39.7132 -39.7129 -39.7129 -39.4649 -39.4649 -39.4646 -39.4646
    -3.3767  -3.2196  -1.9621  -1.9601   0.6563   0.6738   0.9372   1.0320
     5.4830   5.4979   5.9073   5.9874   6.6822   6.7378   7.6713   7.7470
     8.1755   8.2230   8.7791   8.8897   9.2535   9.3442   9.4990   9.5427
     9.8748  10.0554  10.1536  10.2792  11.6959  11.7145  11.9800  12.0116
    12.1970  12.2088  12.2500  12.2710  12.4397  12.5008  12.5845  12.6048
    14.0970  14.2211  14.4404  14.4711  14.9652  15.0933  15.5228  15.5319
    15.5936  15.6052  16.2484  16.2859  18.9468  18.9893  19.1039  19.1732
    20.4649  20.5609  21.2098  21.3006  21.4041  21.4710  22.3784  22.4989
    22.5221  22.5948  22.9838  23.1197

          k = 0.0250 0.4875 0.0375 ( 10721 PWs)   bands (ev):

   -73.4077 -73.4076 -73.4075 -73.4075 -39.7146 -39.7145 -39.7143 -39.7142
   -39.7132 -39.7131 -39.7129 -39.7129 -39.4649 -39.4649 -39.4646 -39.4646
    -3.3579  -3.2789  -1.9429  -1.9426   0.6788   0.6861   0.9614   1.0135
     5.5460   5.5501   5.8360   5.8830   6.7087   6.7305   7.7997   7.8314
     8.0625   8.0851   8.8051   8.8547   9.3318   9.3861   9.5038   9.5326
     9.8271   9.9261  10.1742  10.2367  11.6858  11.6910  11.9887  12.0056
    12.2210  12.2230  12.2693  12.2833  12.4528  12.4860  12.6002  12.6126
    14.1497  14.2136  14.4098  14.4282  15.0038  15.0748  15.5460  15.5589
    15.5787  15.5873  16.3170  16.3294  18.9224  18.9478  19.0472  19.0844
    20.5851  20.6141  21.3332  21.3658  21.4525  21.4797  22.3102  22.3801
    22.6260  22.6514  23.1022  23.1834

          k = 0.0000 0.5000 0.0000 ( 10676 PWs)   bands (ev):

   -73.4077 -73.4077 -73.4075 -73.4075 -39.7143 -39.7143 -39.7140 -39.7140
   -39.7132 -39.7132 -39.7129 -39.7129 -39.4648 -39.4648 -39.4645 -39.4645
    -3.3252  -3.3252  -1.9365  -1.9365   0.6884   0.6884   0.9882   0.9882
     5.5781   5.5781   5.8189   5.8189   6.7227   6.7227   7.9418   7.9418
     7.9422   7.9422   8.8258   8.8258   9.3829   9.3829   9.5280   9.5280
     9.8311   9.8311  10.2050  10.2050  11.6827  11.6827  11.9977  11.9977
    12.2283  12.2283  12.2821  12.2821  12.4696  12.4696  12.6105  12.6105
    14.1929  14.1929  14.4026  14.4026  15.0426  15.0426  15.5665  15.5665
    15.5717  15.5717  16.3441  16.3441  18.9238  18.9238  19.0392  19.0392
    20.6306  20.6306  21.3907  21.3907  21.4757  21.4757  22.2943  22.2943
    22.6812  22.6812  23.1854  23.1854

          k = 0.0000 0.4750 0.0000 ( 10716 PWs)   bands (ev):

   -73.4077 -73.4077 -73.4075 -73.4075 -39.7145 -39.7144 -39.7143 -39.7142
   -39.7132 -39.7132 -39.7130 -39.7129 -39.4650 -39.4649 -39.4646 -39.4646
    -3.4033  -3.2450  -1.9376  -1.9368   0.6810   0.6937   0.9358   1.0433
     5.5779   5.5856   5.7697   5.8756   6.7022   6.7418   7.8971   7.9378
     7.9498   7.9887   8.7703   8.8685   9.3293   9.4350   9.4771   9.5330
     9.7603   9.9529  10.1327  10.2565  11.6833  11.6864  11.9814  12.0160
    12.2264  12.2273  12.2638  12.2938  12.4345  12.5020  12.5947  12.6211
    14.1349  14.2654  14.3770  14.4141  14.9660  15.1113  15.5496  15.5545
    15.5918  15.6008  16.3384  16.3540  18.9074  18.9472  19.0231  19.0833
    20.6082  20.6249  21.4035  21.4044  21.4647  21.4957  22.2072  22.3599
    22.6709  22.6970  23.1001  23.2720

          k = 0.0000 0.4500 0.0000 ( 10724 PWs)   bands (ev):

   -73.4077 -73.4077 -73.4075 -73.4075 -39.7146 -39.7145 -39.7144 -39.7142
   -39.7132 -39.7131 -39.7130 -39.7129 -39.4650 -39.4649 -39.4647 -39.4646
    -3.4789  -3.1630  -1.9401  -1.9385   0.6717   0.6967   0.8865   1.1011
     5.5851   5.5999   5.7283   5.9389   6.6806   6.7596   7.8552   7.9367
     7.9602   8.0371   8.6999   8.9007   9.2743   9.3784   9.4858   9.5183
     9.7460  10.0442  10.0960  10.2831  11.6908  11.6923  11.9668  12.0366
    12.2206  12.2230  12.2412  12.2993  12.3989  12.5304  12.5745  12.6260
    14.0910  14.3391  14.3529  14.4111  14.8868  15.1680  15.5266  15.5703
    15.6094  15.6497  16.3363  16.3683  18.9079  18.9598  19.0520  19.1468
    20.5624  20.5934  21.4149  21.4386  21.4920  21.5214  22.1062  22.3983
    22.6618  22.7212  23.0224  23.3514

          k = 0.0000 0.4250 0.0000 ( 10724 PWs)   bands (ev):

   -73.4077 -73.4076 -73.4075 -73.4075 -39.7146 -39.7145 -39.7144 -39.7142
   -39.7132 -39.7130 -39.7129 -39.7129 -39.4650 -39.4649 -39.4647 -39.4646
    -3.5518  -3.0796  -1.9439  -1.9416   0.6608   0.6972   0.8403   1.1613
     5.5997   5.6208   5.6952   6.0081   6.6579   6.7765   7.8168   7.9389
     7.9725   8.0861   8.6131   8.9244   9.2179   9.2635   9.4966   9.5355
     9.7594   9.9440  10.2440  10.2821  11.6929  11.7125  11.9531  12.0591
    12.1991  12.2138  12.2267  12.2993  12.3652  12.5511  12.5540  12.6247
    14.0597  14.2916  14.3952  14.4549  14.8082  15.2128  15.5046  15.6129
    15.6246  15.7057  16.3365  16.3867  18.9289  18.9711  19.1153  19.2268
    20.5012  20.5436  21.4056  21.4788  21.5583  21.5679  21.9979  22.4105
    22.6513  22.7510  22.9576  23.4107

          k = 0.0000 0.4000 0.0000 ( 10724 PWs)   bands (ev):

   -73.4078 -73.4076 -73.4075 -73.4075 -39.7147 -39.7145 -39.7145 -39.7141
   -39.7132 -39.7131 -39.7130 -39.7129 -39.4650 -39.4648 -39.4647 -39.4646
    -3.6218  -2.9952  -1.9489  -1.9460   0.6487   0.6950   0.7972   1.2234
     5.6217   5.6476   5.6707   6.0821   6.6348   6.7931   7.7824   7.9440
     7.9858   8.1343   8.5103   8.9417   9.1511   9.1604   9.4725   9.5844
     9.7832   9.8355  10.2532  10.3886  11.6910  11.7445  11.9400  12.0829
    12.1633  12.1976  12.2205  12.2952  12.3361  12.5251  12.5725  12.6173
    14.0397  14.2373  14.3692  14.5704  14.7320  15.2507  15.4860  15.6381
    15.6742  15.7632  16.3377  16.4085  18.9727  18.9942  19.1984  19.3215
    20.4314  20.4832  21.3934  21.5078  21.6115  21.6685  21.8874  22.4035
    22.6383  22.7790  22.9104  23.4320

          k = 0.0000 0.3750 0.0000 ( 10708 PWs)   bands (ev):

   -73.4077 -73.4076 -73.4075 -73.4075 -39.7147 -39.7145 -39.7145 -39.7139
   -39.7131 -39.7130 -39.7129 -39.7128 -39.4650 -39.4648 -39.4647 -39.4645
    -3.6885  -2.9103  -1.9549  -1.9516   0.6356   0.6901   0.7573   1.2872
     5.6508   5.6549   5.6796   6.1600   6.6118   6.8100   7.7525   7.9513
     7.9985   8.1788   8.3957   8.9541   9.0470   9.1025   9.4480   9.6325
     9.7219   9.8116  10.1985  10.5239  11.6844  11.7866  11.9269  12.1070
    12.1224  12.1732  12.2151  12.2866  12.3150  12.4978  12.5859  12.6037
    14.0291  14.1785  14.3376  14.6593  14.6979  15.2874  15.4732  15.6510
    15.7443  15.8177  16.3384  16.4329  19.0315  19.0406  19.2972  19.4295
    20.3579  20.4176  21.3825  21.5249  21.6721  21.7789  21.7841  22.3844
    22.6226  22.7990  22.8852  23.3971

          k = 0.0000 0.3500 0.0000 ( 10720 PWs)   bands (ev):

   -73.4078 -73.4076 -73.4075 -73.4075 -39.7149 -39.7146 -39.7146 -39.7139
   -39.7131 -39.7130 -39.7129 -39.7128 -39.4650 -39.4648 -39.4647 -39.4645
    -3.7517  -2.8255  -1.9618  -1.9582   0.6218   0.6825   0.7205   1.3520
     5.6480   5.6865   5.7160   6.2402   6.5896   6.8283   7.7280   7.9604
     8.0088   8.2004   8.2900   8.9527   8.9630   9.0449   9.4239   9.6054
     9.6801   9.8422  10.1219  10.6444  11.6734  11.8350  11.9138  12.0800
    12.1305  12.1412  12.2096  12.2722  12.3043  12.4703  12.5842  12.5947
    14.0264  14.1171  14.3040  14.5904  14.8356  15.3262  15.4687  15.6641
    15.8160  15.8663  16.3373  16.4589  19.0822  19.1332  19.4104  19.5493
    20.2834  20.3501  21.3741  21.5338  21.6760  21.7295  21.9096  22.3580
    22.6043  22.8081  22.8840  23.2900

          k = 0.0000 0.3250 0.0000 ( 10736 PWs)   bands (ev):

   -73.4078 -73.4076 -73.4075 -73.4075 -39.7150 -39.7147 -39.7147 -39.7138
   -39.7131 -39.7130 -39.7129 -39.7128 -39.4651 -39.4648 -39.4648 -39.4646
    -3.8113  -2.7411  -1.9694  -1.9656   0.6077   0.6723   0.6867   1.4174
     5.6499   5.7282   5.7559   6.3213   6.5694   6.8490   7.7095   7.9702
     8.0150   8.1106   8.2830   8.8690   8.9699   8.9886   9.4006   9.4879
     9.7269   9.8740  10.0280  10.7443  11.6588  11.8764  11.9101  12.0400
    12.1028  12.1528  12.2038  12.2563  12.3001  12.4436  12.5595  12.5997
    14.0300  14.0540  14.2719  14.5258  14.9815  15.3680  15.4748  15.6782
    15.8843  15.9072  16.3335  16.4855  19.1441  19.2500  19.5369  19.6796
    20.2098  20.2828  21.3684  21.5359  21.5823  21.7784  22.0407  22.3274
    22.5836  22.8059  22.9029  23.1521

          k = 0.0000 0.3000 0.0000 ( 10723 PWs)   bands (ev):

   -73.4078 -73.4076 -73.4075 -73.4075 -39.7150 -39.7147 -39.7147 -39.7137
   -39.7130 -39.7130 -39.7128 -39.7127 -39.4650 -39.4648 -39.4647 -39.4646
    -3.8672  -2.6580  -1.9775  -1.9737   0.5934   0.6560   0.6597   1.4828
     5.6603   5.7750   5.7980   6.4015   6.5520   6.8733   7.6979   7.9784
     7.9798   8.0150   8.3041   8.7993   8.9347   8.9761   9.3714   9.3786
     9.7717   9.9063   9.9229  10.8179  11.6419  11.8711  11.9521  12.0073
    12.0590  12.1735  12.1978  12.2428  12.2984  12.4187  12.5307  12.6015
    13.9899  14.0386  14.2433  14.4661  15.1330  15.4131  15.4934  15.6941
    15.9402  15.9466  16.3263  16.5120  19.2144  19.3899  19.6758  19.8191
    20.1381  20.2166  21.3659  21.5019  21.5318  21.8176  22.1720  22.2942
    22.5604  22.7929  22.9078  22.9749

          k = 0.0000 0.2750 0.0000 ( 10727 PWs)   bands (ev):

   -73.4078 -73.4075 -73.4075 -73.4075 -39.7149 -39.7148 -39.7148 -39.7137
   -39.7131 -39.7130 -39.7128 -39.7127 -39.4651 -39.4647 -39.4647 -39.4646
    -3.9191  -2.5767  -1.9859  -1.9822   0.5793   0.6282   0.6448   1.5474
     5.6789   5.8253   5.8411   6.4789   6.5390   6.9025   7.6939   7.8429
     7.9883   8.0072   8.3100   8.7495   8.8830   8.9828   9.2580   9.3580
     9.7823   9.8427   9.9389  10.8597  11.6237  11.8513  11.9862  12.0043
    12.0107  12.1917  12.1922  12.2333  12.2979  12.3959  12.4990  12.6008
    13.9246  14.0507  14.2197  14.4120  15.2866  15.4610  15.5268  15.7120
    15.9654  16.0008  16.3153  16.5374  19.2894  19.5507  19.8254  19.9663
    20.0692  20.1523  21.3663  21.4389  21.5225  21.8485  22.2595  22.2892
    22.5344  22.7702  22.7929  22.8235

          k = 0.0000 0.2500 0.0000 ( 10699 PWs)   bands (ev):

   -73.4078 -73.4075 -73.4075 -73.4075 -39.7149 -39.7148 -39.7147 -39.7136
   -39.7130 -39.7129 -39.7128 -39.7126 -39.4650 -39.4647 -39.4646 -39.4645
    -3.9669  -2.4981  -1.9943  -1.9909   0.5656   0.6032   0.6282   1.6105
     5.7053   5.8773   5.8839   6.5320   6.5513   6.9380   7.6981   7.7093
     7.9906   7.9945   8.2909   8.7257   8.8313   8.9913   9.1517   9.3390
     9.6748   9.8755   9.9715  10.8669  11.6060  11.8271  11.9586  11.9799
    12.0546  12.1855  12.2091  12.2282  12.2979  12.3756  12.4662  12.5984
    13.8584  14.0653  14.2014  14.3640  15.4341  15.5116  15.5811  15.7322
    15.9839  16.0463  16.3005  16.5611  19.3652  19.7298  19.9832  20.0036
    20.0900  20.1200  21.3698  21.3983  21.5095  21.8729  22.2242  22.3306
    22.5051  22.6772  22.7067  22.7386

          k = 0.0000 0.2250 0.0000 ( 10743 PWs)   bands (ev):

   -73.4078 -73.4075 -73.4075 -73.4075 -39.7151 -39.7149 -39.7149 -39.7137
   -39.7131 -39.7130 -39.7128 -39.7127 -39.4651 -39.4648 -39.4647 -39.4646
    -4.0105  -2.4228  -2.0027  -1.9997   0.5525   0.5809   0.6101   1.6712
     5.7390   5.9250   5.9285   6.5331   6.6170   6.9810   7.5800   7.7110
     7.9655   7.9970   8.2472   8.7269   8.7734   9.0027   9.0594   9.3215
     9.5534   9.9204  10.0039  10.8408  11.5896  11.7990  11.9038  11.9877
    12.1006  12.1794  12.2236  12.2272  12.2983  12.3578  12.4336  12.5947
    13.7913  14.0812  14.1883  14.3223  15.5524  15.5639  15.6762  15.7547
    15.9967  16.0824  16.2819  16.5825  19.4375  19.9242  19.9420  20.0297
    20.1466  20.2787  21.3759  21.3850  21.4948  21.8919  22.1886  22.2071
    22.4717  22.5923  22.6987  22.7229

          k = 0.0000 0.2000 0.0000 ( 10751 PWs)   bands (ev):

   -73.4079 -73.4076 -73.4075 -73.4075 -39.7152 -39.7150 -39.7150 -39.7136
   -39.7132 -39.7129 -39.7128 -39.7127 -39.4652 -39.4648 -39.4647 -39.4646
    -4.0498  -2.3519  -2.0107  -2.0081   0.5402   0.5612   0.5912   1.7289
     5.7790   5.9632   5.9759   6.5445   6.6745   7.0326   7.4563   7.7320
     7.9330   7.9946   8.1872   8.7000   8.7450   8.9898   9.0184   9.3057
     9.4331   9.9657  10.0357  10.7864  11.5759  11.7675  11.8477  12.0064
    12.1418  12.1735  12.2297  12.2363  12.2988  12.3426  12.4029  12.5904
    13.7242  14.0979  14.1797  14.2872  15.6178  15.6346  15.7793  15.8149
    16.0050  16.1092  16.2601  16.6012  19.5017  19.8848  19.9713  20.1304
    20.3123  20.4413  21.3842  21.4035  21.4803  21.9056  22.0124  22.1531
    22.4329  22.4874  22.6507  22.8407

          k = 0.0000 0.1750 0.0000 ( 10751 PWs)   bands (ev):

   -73.4079 -73.4076 -73.4076 -73.4075 -39.7152 -39.7151 -39.7150 -39.7136
   -39.7132 -39.7129 -39.7127 -39.7127 -39.4652 -39.4648 -39.4647 -39.4646
    -4.0847  -2.2861  -2.0183  -2.0162   0.5290   0.5441   0.5721   1.7825
     5.8244   5.9975   6.0167   6.5682   6.7228   7.0934   7.3395   7.7599
     7.8956   7.9860   8.1200   8.6069   8.7717   8.9461   9.0391   9.2918
     9.3183  10.0099  10.0666  10.7106  11.5652  11.7331  11.7919  12.0312
    12.1679  12.1776  12.2348  12.2471  12.2995  12.3301  12.3751  12.5859
    13.6583  14.1143  14.1752  14.2583  15.6725  15.7065  15.8058  15.9664
    16.0101  16.1267  16.2355  16.6169  19.5546  19.8326  19.9149  20.3447
    20.4780  20.6061  21.3941  21.4559  21.4675  21.8093  21.9127  22.1176
    22.3875  22.3959  22.5950  22.9708

          k = 0.0000 0.1500 0.0000 ( 10743 PWs)   bands (ev):

   -73.4079 -73.4075 -73.4075 -73.4075 -39.7153 -39.7150 -39.7150 -39.7135
   -39.7132 -39.7128 -39.7127 -39.7127 -39.4652 -39.4648 -39.4647 -39.4646
    -4.1151  -2.2264  -2.0252  -2.0236   0.5189   0.5294   0.5535   1.8312
     5.8740   6.0273   6.0489   6.6044   6.7620   7.1638   7.2306   7.7927
     7.8561   7.9702   8.0520   8.4987   8.8011   8.9222   9.0656   9.2130
     9.2796  10.0522  10.0961  10.6209  11.5579  11.6971  11.7380  12.0580
    12.1627  12.2079  12.2417  12.2560  12.3002  12.3202  12.3513  12.5815
    13.5950  14.1299  14.1734  14.2349  15.7274  15.7762  15.8339  16.0128
    16.1162  16.1352  16.2084  16.6293  19.5941  19.7859  19.8603  20.5626
    20.6421  20.7718  21.4042  21.4577  21.5401  21.6159  21.9107  22.0819
    22.3213  22.3339  22.5321  23.0988

          k = 0.0000 0.1250 0.0000 ( 10771 PWs)   bands (ev):

   -73.4079 -73.4076 -73.4075 -73.4075 -39.7153 -39.7152 -39.7151 -39.7135
   -39.7134 -39.7128 -39.7128 -39.7127 -39.4653 -39.4648 -39.4648 -39.4647
    -4.1409  -2.1738  -2.0314  -2.0301   0.5102   0.5171   0.5360   1.8742
     5.9259   6.0522   6.0721   6.6515   6.7925   7.1305   7.2436   7.8172
     7.8274   7.9469   7.9880   8.3815   8.8297   8.9106   9.0979   9.1202
     9.2692  10.0915  10.1234  10.5244  11.5537  11.6610  11.6877  12.0834
    12.1581  12.2326  12.2492  12.2629  12.3009  12.3127  12.3318  12.5774
    13.5365  14.1441  14.1734  14.2166  15.7818  15.8429  15.8633  16.0140
    16.1350  16.1795  16.2579  16.6384  19.6207  19.7453  19.8080  20.7788
    20.8045  20.9368  21.4006  21.4516  21.4537  21.6488  21.8978  22.0447
    22.2665  22.2716  22.4631  23.2181

          k = 0.0000 0.1000 0.0000 ( 10779 PWs)   bands (ev):

   -73.4079 -73.4076 -73.4075 -73.4075 -39.7153 -39.7152 -39.7152 -39.7135
   -39.7134 -39.7128 -39.7128 -39.7127 -39.4653 -39.4648 -39.4648 -39.4647
    -4.1621  -2.1292  -2.0365  -2.0357   0.5029   0.5071   0.5204   1.9107
     5.9779   6.0722   6.0876   6.7051   6.8153   7.0410   7.3323   7.7817
     7.8609   7.9172   7.9313   8.2600   8.8554   8.9058   9.0427   9.1349
     9.2607  10.1266  10.1478  10.4278  11.5520  11.6269  11.6430  12.1055
    12.1542  12.2516  12.2566  12.2678  12.3017  12.3076  12.3170  12.5739
    13.4846  14.1565  14.1747  14.2026  15.8351  15.8937  15.9039  16.0142
    16.1266  16.1492  16.3861  16.6445  19.6365  19.7112  19.7590  20.9651
    20.9865  21.0990  21.2769  21.4347  21.4491  21.7676  21.8744  22.0039
    22.2025  22.2315  22.3907  23.3240

          k = 0.0000 0.0750 0.0000 ( 10779 PWs)   bands (ev):

   -73.4079 -73.4076 -73.4075 -73.4075 -39.7154 -39.7152 -39.7152 -39.7135
   -39.7134 -39.7128 -39.7128 -39.7127 -39.4653 -39.4648 -39.4648 -39.4647
    -4.1787  -2.0935  -2.0407  -2.0402   0.4971   0.4994   0.5074   1.9398
     6.0267   6.0873   6.0971   6.7591   6.8316   6.9642   7.4289   7.7517
     7.8839   7.8845   7.8902   8.1369   8.8766   8.9045   8.9822   9.1738
     9.2541  10.1560  10.1683  10.3385  11.5520  11.5972  11.6057  12.1234
    12.1510  12.2631  12.2645  12.2707  12.3024  12.3049  12.3074  12.5711
    13.4416  14.1665  14.1765  14.1923  15.8864  15.9248  15.9558  16.0139
    16.1105  16.1180  16.4951  16.6480  19.6444  19.6842  19.7153  21.1224
    21.1537  21.1771  21.2545  21.4428  21.4499  21.8456  21.8690  21.9559
    22.1404  22.2124  22.3199  23.4121

          k = 0.0000 0.0500 0.0000 ( 10779 PWs)   bands (ev):

   -73.4079 -73.4076 -73.4075 -73.4075 -39.7153 -39.7153 -39.7152 -39.7135
   -39.7134 -39.7128 -39.7127 -39.7127 -39.4654 -39.4648 -39.4648 -39.4647
    -4.1905  -2.0674  -2.0437  -2.0435   0.4929   0.4939   0.4977   1.9611
     6.0679   6.0979   6.1026   6.8062   6.8424   6.9038   7.5317   7.7291
     7.8496   7.8524   7.9129   8.0148   8.8924   8.9047   8.9394   9.2098
     9.2494  10.1783  10.1840  10.2646  11.5529  11.5740  11.5776  12.1363
    12.1487  12.2683  12.2710  12.2720  12.3030  12.3034  12.3038  12.5691
    13.4092  14.1739  14.1782  14.1853  15.9349  15.9564  15.9957  16.0136
    16.0863  16.0873  16.5790  16.6496  19.6476  19.6645  19.6800  21.0622
    21.2714  21.3423  21.3933  21.4501  21.4525  21.8183  21.8917  21.8968
    22.1330  22.2035  22.2582  23.4785

          k = 0.0000 0.0250 0.0000 ( 10803 PWs)   bands (ev):

   -73.4079 -73.4076 -73.4076 -73.4076 -39.7154 -39.7153 -39.7153 -39.7136
   -39.7135 -39.7128 -39.7128 -39.7127 -39.4655 -39.4648 -39.4648 -39.4648
    -4.1976  -2.0515  -2.0455  -2.0455   0.4904   0.4906   0.4916   1.9741
     6.0961   6.1042   6.1054   6.8388   6.8485   6.8643   7.6370   7.7150
     7.8280   7.8293   7.8979   7.9271   8.9022   8.9052   8.9139   9.2359
     9.2465  10.1924  10.1938  10.2148  11.5537  11.5591  11.5600  12.1441
    12.1472  12.2715  12.2725  12.2725  12.3031  12.3034  12.3036  12.5678
    13.3891  14.1783  14.1793  14.1811  15.9796  15.9879  16.0132  16.0208
    16.0546  16.0578  16.6320  16.6502  19.6485  19.6526  19.6568  21.0062
    21.3978  21.4549  21.4554  21.4724  21.4943  21.7988  21.8304  21.8330
    22.1768  22.2000  22.2150  23.5242

          k = 0.0000 0.0000 0.0000 ( 10827 PWs)   bands (ev):

   -73.4080 -73.4076 -73.4076 -73.4076 -39.7154 -39.7153 -39.7153 -39.7136
   -39.7135 -39.7129 -39.7129 -39.7129 -39.4655 -39.4649 -39.4649 -39.4649
    -4.2000  -2.0462  -2.0462  -2.0462   0.4895   0.4895   0.4895   1.9785
     6.1062   6.1062   6.1062   6.8505   6.8505   6.8505   7.7102   7.7102
     7.8207   7.8207   7.8208   7.9320   8.9054   8.9054   8.9055   9.2455
[...]
    15.6613  15.6613  16.0430  16.0430  19.1582  19.1582  19.5871  19.5871
    19.9027  19.9027  20.8898  20.8898  21.1786  21.1786  21.8189  21.8189
    22.2764  22.2764  22.8800  22.8800

          k = 0.7500 0.4937 0.2562 ( 10725 PWs)   bands (ev):

   -73.4077 -73.4076 -73.4076 -73.4076 -39.7149 -39.7149 -39.7144 -39.7144
   -39.7131 -39.7131 -39.7126 -39.7126 -39.4649 -39.4648 -39.4647 -39.4647
    -2.9632  -2.9293  -2.2124  -2.2116   0.4124   0.4166   0.7365   0.7406
     5.4704   5.4829   6.3489   6.3619   6.5590   6.5811   7.8747   7.8951
     8.3788   8.4167   8.6857   8.6976   9.3845   9.3981   9.8796   9.9018
    10.0498  10.0639  10.6156  10.6497  11.7519  11.7612  11.8964  11.9131
    11.9633  11.9649  12.1577  12.1656  12.3901  12.3979  12.5381  12.5423
    14.1500  14.1731  14.5910  14.6028  14.7904  14.7974  15.2004  15.2073
    15.6551  15.6674  16.0332  16.0432  19.1505  19.1689  19.5736  19.6095
    19.8906  19.9296  20.8579  20.8810  21.1655  21.2144  21.8290  21.8407
    22.2433  22.2474  22.8593  22.8820

          k = 0.7500 0.4875 0.2625 ( 10720 PWs)   bands (ev):

   -73.4077 -73.4077 -73.4076 -73.4075 -39.7149 -39.7148 -39.7144 -39.7144
   -39.7131 -39.7130 -39.7126 -39.7126 -39.4648 -39.4648 -39.4647 -39.4647
    -2.9713  -2.9039  -2.2184  -2.2160   0.4046   0.4128   0.7275   0.7360
     5.4675   5.4930   6.3326   6.3608   6.5686   6.6153   7.8660   7.9073
     8.3490   8.4274   8.6796   8.7013   9.3899   9.4157   9.8752   9.9206
    10.0424  10.0718  10.6012  10.6686  11.7475  11.7655  11.8854  11.9179
    11.9597  11.9632  12.1528  12.1675  12.3817  12.3972  12.5344  12.5425
    14.1414  14.1875  14.5858  14.6079  14.7840  14.7958  15.1941  15.2079
    15.6488  15.6736  16.0243  16.0445  19.1433  19.1798  19.5595  19.6338
    19.8795  19.9584  20.8260  20.8720  21.1527  21.2508  21.8363  21.8606
    22.2099  22.2207  22.8406  22.8780

          k = 0.7500 0.4812 0.2687 ( 10719 PWs)   bands (ev):

   -73.4077 -73.4077 -73.4076 -73.4075 -39.7149 -39.7148 -39.7144 -39.7144
   -39.7130 -39.7130 -39.7126 -39.7126 -39.4648 -39.4648 -39.4647 -39.4647
    -2.9790  -2.8784  -2.2252  -2.2203   0.3973   0.4093   0.7183   0.7317
     5.4649   5.5038   6.3145   6.3596   6.5784   6.6513   7.8563   7.9191
     8.3182   8.4383   8.6745   8.7049   9.3964   9.4327   9.8692   9.9372
    10.0363  10.0807  10.5872  10.6873  11.7430  11.7688  11.8750  11.9219
    11.9565  11.9623  12.1487  12.1690  12.3733  12.3965  12.5308  12.5424
    14.1333  14.2022  14.5800  14.6111  14.7793  14.7936  15.1876  15.2085
    15.6424  15.6799  16.0163  16.0467  19.1364  19.1907  19.5445  19.6600
    19.8698  19.9891  20.7943  20.8627  21.1408  21.2874  21.8399  21.8777
    22.1764  22.1973  22.8235  22.8663

          k = 0.7500 0.4750 0.2750 ( 10720 PWs)   bands (ev):

   -73.4077 -73.4076 -73.4076 -73.4075 -39.7149 -39.7148 -39.7144 -39.7144
   -39.7130 -39.7130 -39.7126 -39.7126 -39.4648 -39.4648 -39.4647 -39.4647
    -2.9863  -2.8530  -2.2329  -2.2243   0.3904   0.4061   0.7091   0.7276
     5.4626   5.5154   6.2952   6.3583   6.5882   6.6887   7.8453   7.9300
     8.2874   8.4491   8.6700   8.7083   9.4039   9.4488   9.8620   9.9498
    10.0333  10.0900  10.5738  10.7055  11.7382  11.7710  11.8658  11.9248
    11.9537  11.9620  12.1456  12.1698  12.3651  12.3957  12.5271  12.5419
    14.1256  14.2174  14.5737  14.6122  14.7760  14.7910  15.1810  15.2093
    15.6360  15.6861  16.0091  16.0500  19.1298  19.2014  19.5287  19.6879
    19.8620  20.0214  20.7630  20.8527  21.1298  21.3239  21.8392  21.8911
    22.1432  22.1785  22.8060  22.8479

          k = 0.7500 0.4687 0.2812 ( 10723 PWs)   bands (ev):

   -73.4077 -73.4076 -73.4076 -73.4075 -39.7150 -39.7148 -39.7144 -39.7144
   -39.7130 -39.7130 -39.7126 -39.7126 -39.4648 -39.4648 -39.4648 -39.4647
    -2.9931  -2.8275  -2.2415  -2.2282   0.3841   0.4032   0.6999   0.7237
     5.4606   5.5277   6.2750   6.3571   6.5977   6.7272   7.8326   7.9398
     8.2582   8.4600   8.6653   8.7116   9.4123   9.4642   9.8541   9.9562
    10.0357  10.0995  10.5610  10.7232  11.7329  11.7718  11.8580  11.9265
    11.9520  11.9621  12.1435  12.1699  12.3570  12.3950  12.5235  12.5412
    14.1183  14.2328  14.5669  14.6118  14.7738  14.7880  15.1744  15.2105
    15.6296  15.6923  16.0026  16.0541  19.1237  19.2119  19.5120  19.7174
    19.8566  20.0553  20.7321  20.8417  21.1202  21.3600  21.8342  21.8993
    22.1107  22.1655  22.7818  22.8295

          k = 0.7500 0.4625 0.2875 ( 10724 PWs)   bands (ev):

   -73.4077 -73.4076 -73.4076 -73.4076 -39.7150 -39.7148 -39.7145 -39.7144
   -39.7130 -39.7130 -39.7126 -39.7126 -39.4648 -39.4648 -39.4647 -39.4647
    -2.9995  -2.8022  -2.2510  -2.2318   0.3783   0.4006   0.6907   0.7201
     5.4588   5.5407   6.2541   6.3561   6.6069   6.7666   7.8179   7.9480
     8.2317   8.4708   8.6604   8.7146   9.4219   9.4786   9.8458   9.9555
    10.0442  10.1088  10.5489  10.7403  11.7271  11.7713  11.8518  11.9266
    11.9519  11.9622  12.1425  12.1692  12.3493  12.3944  12.5199  12.5402
    14.1113  14.2484  14.5597  14.6101  14.7721  14.7849  15.1677  15.2120
    15.6233  15.6982  15.9968  16.0590  19.1179  19.2220  19.4943  19.7482
    19.8541  20.0905  20.7018  20.8295  21.1120  21.3953  21.8250  21.9006
    22.0792  22.1594  22.7452  22.8190

          k = 0.7500 0.4562 0.2937 ( 10726 PWs)   bands (ev):

   -73.4077 -73.4076 -73.4076 -73.4075 -39.7150 -39.7148 -39.7145 -39.7144
   -39.7130 -39.7130 -39.7126 -39.7126 -39.4648 -39.4648 -39.4648 -39.4647
    -3.0055  -2.7769  -2.2614  -2.2352   0.3730   0.3984   0.6815   0.7167
     5.4573   5.5543   6.2328   6.3551   6.6156   6.8067   7.8005   7.9540
     8.2094   8.4814   8.6548   8.7175   9.4323   9.4920   9.8375   9.9498
    10.0567  10.1180  10.5374  10.7567  11.7206  11.7699  11.8471  11.9251
    11.9537  11.9620  12.1427  12.1675  12.3420  12.3940  12.5164  12.5389
    14.1047  14.2642  14.5519  14.6077  14.7698  14.7822  15.1613  15.2139
    15.6172  15.7039  15.9917  16.0645  19.1126  19.2315  19.4757  19.7797
    19.8552  20.1267  20.6722  20.8159  21.1053  21.4293  21.8121  21.8939
    22.0488  22.1609  22.6996  22.8160

          k = 0.7500 0.4500 0.3000 ( 10724 PWs)   bands (ev):

   -73.4077 -73.4076 -73.4076 -73.4075 -39.7150 -39.7148 -39.7145 -39.7144
   -39.7130 -39.7130 -39.7126 -39.7126 -39.4649 -39.4648 -39.4648 -39.4647
    -3.0111  -2.7518  -2.2727  -2.2384   0.3682   0.3966   0.6725   0.7135
     5.4560   5.5687   6.2111   6.3542   6.6239   6.8473   7.7800   7.9573
     8.1925   8.4917   8.6485   8.7202   9.4436   9.5043   9.8293   9.9412
    10.0708  10.1271  10.5266  10.7723  11.7135  11.7681  11.8436  11.9222
    11.9572  11.9613  12.1441  12.1650  12.3350  12.3939  12.5128  12.5375
    14.0985  14.2802  14.5438  14.6050  14.7663  14.7805  15.1550  15.2164
    15.6113  15.7092  15.9872  16.0705  19.1076  19.2405  19.4563  19.8103
    19.8614  20.1637  20.6437  20.8009  21.0999  21.4617  21.7957  21.8797
    22.0197  22.1695  22.6498  22.8179

          k = 0.7500 0.4437 0.3062 ( 10722 PWs)   bands (ev):

   -73.4077 -73.4076 -73.4076 -73.4076 -39.7150 -39.7148 -39.7145 -39.7144
   -39.7130 -39.7130 -39.7126 -39.7125 -39.4648 -39.4648 -39.4648 -39.4647
    -3.0162  -2.7269  -2.2848  -2.2413   0.3640   0.3951   0.6637   0.7105
     5.4549   5.5836   6.1893   6.3535   6.6316   6.8884   7.7561   7.9580
     8.1816   8.5018   8.6413   8.7227   9.4556   9.5155   9.8212   9.9313
    10.0843  10.1369  10.5165  10.7871  11.7057  11.7661  11.8412  11.9186
    11.9598  11.9620  12.1465  12.1614  12.3285  12.3940  12.5093  12.5359
    14.0926  14.2963  14.5352  14.6022  14.7614  14.7794  15.1492  15.2193
    15.6058  15.7142  15.9834  16.0768  19.1030  19.2488  19.4363  19.8358
    19.8767  20.2008  20.6163  20.7848  21.0958  21.4915  21.7753  21.8605
    21.9924  22.1836  22.5990  22.8238

          k = 0.7500 0.4375 0.3125 ( 10711 PWs)   bands (ev):

   -73.4076 -73.4076 -73.4076 -73.4075 -39.7150 -39.7148 -39.7145 -39.7144
   -39.7130 -39.7130 -39.7126 -39.7125 -39.4648 -39.4647 -39.4647 -39.4647
    -3.0209  -2.7021  -2.2979  -2.2440   0.3602   0.3940   0.6551   0.7077
     5.4541   5.5992   6.1674   6.3529   6.6387   6.9298   7.7285   7.9561
     8.1768   8.5115   8.6334   8.7251   9.4679   9.5256   9.8133   9.9211
    10.0955  10.1482  10.5071  10.8009  11.6976  11.7642  11.8393  11.9145
    11.9577  11.9677  12.1499  12.1571  12.3225  12.3945  12.5058  12.5343
    14.0870  14.3125  14.5262  14.5996  14.7556  14.7786  15.1438  15.2226
    15.6006  15.7188  15.9801  16.0833  19.0988  19.2562  19.4161  19.8532
    19.9040  20.2376  20.5904  20.7680  21.0926  21.5180  21.7494  21.8398
    21.9676  22.2013  22.5492  22.8329

          k = 0.7500 0.4312 0.3187 ( 10713 PWs)   bands (ev):

   -73.4076 -73.4076 -73.4076 -73.4075 -39.7150 -39.7147 -39.7146 -39.7144
   -39.7130 -39.7130 -39.7126 -39.7125 -39.4648 -39.4648 -39.4647 -39.4647
    -3.0251  -2.6775  -2.3117  -2.2464   0.3570   0.3934   0.6468   0.7052
     5.4534   5.6151   6.1455   6.3524   6.6451   6.9714   7.6973   7.9526
     8.1773   8.5207   8.6247   8.7274   9.4802   9.5350   9.8055   9.9113
    10.1035  10.1616  10.4982  10.8136  11.6893  11.7627  11.8380  11.9103
    11.9547  11.9740  12.1507  12.1553  12.3169  12.3955  12.5023  12.5326
    14.0818  14.3286  14.5169  14.5973  14.7492  14.7776  15.1388  15.2263
    15.5959  15.7228  15.9776  16.0898  19.0949  19.2628  19.3960  19.8671
    19.9382  20.2730  20.5664  20.7513  21.0900  21.5398  21.7159  21.8220
    21.9464  22.2205  22.5023  22.8443

          k = 0.7500 0.4250 0.3250 ( 10708 PWs)   bands (ev):

   -73.4076 -73.4076 -73.4076 -73.4075 -39.7150 -39.7147 -39.7146 -39.7143
   -39.7130 -39.7129 -39.7125 -39.7125 -39.4648 -39.4647 -39.4647 -39.4647
    -3.0289  -2.6532  -2.3264  -2.2486   0.3541   0.3931   0.6389   0.7028
     5.4530   5.6315   6.1239   6.3521   6.6509   7.0132   7.6630   7.9481
     8.1820   8.5294   8.6154   8.7296   9.4918   9.5442   9.7974   9.9025
    10.1081  10.1769  10.4898  10.8252  11.6812  11.7616  11.8370  11.9059
    11.9511  11.9807  12.1449  12.1602  12.3116  12.3969  12.4988  12.5309
    14.0769  14.3446  14.5073  14.5955  14.7423  14.7762  15.1345  15.2302
    15.5917  15.7264  15.9756  16.0963  19.0914  19.2681  19.3766  19.8811
    19.9750  20.3056  20.5449  20.7359  21.0875  21.5550  21.6743  21.8100
    21.9302  22.2388  22.4604  22.8573

          k = 0.7500 0.4187 0.3312 ( 10710 PWs)   bands (ev):

   -73.4076 -73.4076 -73.4076 -73.4076 -39.7150 -39.7147 -39.7146 -39.7144
   -39.7130 -39.7129 -39.7125 -39.7125 -39.4648 -39.4647 -39.4647 -39.4647
    -3.0322  -2.6292  -2.3419  -2.2505   0.3517   0.3931   0.6315   0.7007
     5.4527   5.6480   6.1028   6.3519   6.6559   7.0548   7.6262   7.9436
     8.1897   8.5374   8.6055   8.7318   9.5017   9.5539   9.7889   9.8951
    10.1101  10.1935  10.4818  10.8355  11.6734  11.7608  11.8363  11.9016
    11.9469  11.9877  12.1381  12.1661  12.3067  12.3987  12.4952  12.5293
    14.0723  14.3604  14.4976  14.5941  14.7352  14.7745  15.1307  15.2344
    15.5881  15.7293  15.9743  16.1025  19.0883  19.2717  19.3588  19.8960
    20.0129  20.3336  20.5266  20.7235  21.0849  21.5610  21.6269  21.8047
    21.9200  22.2524  22.4267  22.8711

          k = 0.7500 0.4125 0.3375 ( 10711 PWs)   bands (ev):

   -73.4076 -73.4076 -73.4076 -73.4076 -39.7150 -39.7147 -39.7146 -39.7144
   -39.7130 -39.7129 -39.7126 -39.7125 -39.4648 -39.4647 -39.4647 -39.4647
    -3.0352  -2.6056  -2.3583  -2.2522   0.3497   0.3935   0.6246   0.6987
     5.4526   5.6646   6.0822   6.3518   6.6601   7.0960   7.5875   7.9393
     8.1993   8.5447   8.5952   8.7339   9.5089   9.5651   9.7794   9.8895
    10.1101  10.2108  10.4739  10.8447  11.6661  11.7602  11.8360  11.8975
    11.9420  11.9948  12.1308  12.1727  12.3021  12.4012  12.4915  12.5279
    14.0682  14.3758  14.4879  14.5931  14.7281  14.7724  15.1275  15.2385
    15.5852  15.7318  15.9737  16.1084  19.0854  19.2722  19.3441  19.9117
    20.0511  20.3544  20.5125  20.7162  21.0818  21.5476  21.5848  21.8061
    21.9163  22.2553  22.4066  22.8848

          k = 0.7500 0.4062 0.3437 ( 10705 PWs)   bands (ev):

   -73.4076 -73.4076 -73.4076 -73.4076 -39.7150 -39.7147 -39.7146 -39.7143
   -39.7130 -39.7129 -39.7125 -39.7125 -39.4648 -39.4647 -39.4647 -39.4647
    -3.0376  -2.5823  -2.3753  -2.2536   0.3481   0.3942   0.6184   0.6970
     5.4528   5.6810   6.0626   6.3518   6.6636   7.1364   7.5479   7.9355
     8.2101   8.5511   8.5848   8.7361   9.5131   9.5781   9.7690   9.8860
    10.1085  10.2283  10.4661  10.8525  11.6597  11.7599  11.8360  11.8936
    11.9367  12.0017  12.1233  12.1796  12.2977  12.4040  12.4877  12.5267
    14.0645  14.3905  14.4785  14.5924  14.7209  14.7701  15.1249  15.2426
    15.5830  15.7336  15.9737  16.1139  19.0828  19.2682  19.3345  19.9278
    20.0889  20.3657  20.5031  20.7164  21.0779  21.4994  21.5655  21.8132
    21.9193  22.2436  22.4039  22.8973

          k = 0.7500 0.4000 0.3500 ( 10709 PWs)   bands (ev):

   -73.4076 -73.4076 -73.4076 -73.4076 -39.7150 -39.7147 -39.7146 -39.7143
   -39.7130 -39.7129 -39.7125 -39.7125 -39.4648 -39.4647 -39.4647 -39.4647
    -3.0396  -2.5594  -2.3931  -2.2548   0.3468   0.3950   0.6129   0.6955
     5.4531   5.6968   6.0442   6.3519   6.6663   7.1750   7.5087   7.9324
     8.2213   8.5565   8.5748   8.7383   9.5143   9.5928   9.7576   9.8844
    10.1058  10.2455  10.4582  10.8591  11.6541  11.7596  11.8364  11.8901
    11.9309  12.0083  12.1158  12.1867  12.2937  12.4074  12.4838  12.5257
    14.0612  14.4038  14.4700  14.5920  14.7139  14.7676  15.1230  15.2465
    15.5815  15.7348  15.9742  16.1189  19.0804  19.2590  19.3308  19.9435
    20.1259  20.3668  20.4985  20.7254  21.0730  21.4398  21.5491  21.8246
    21.9281  22.2207  22.4145  22.9078

          k = 0.7500 0.3937 0.3562 ( 10708 PWs)   bands (ev):

   -73.4076 -73.4076 -73.4076 -73.4076 -39.7150 -39.7147 -39.7146 -39.7143
   -39.7130 -39.7129 -39.7125 -39.7125 -39.4648 -39.4647 -39.4647 -39.4647
    -3.0412  -2.5369  -2.4116  -2.2557   0.3459   0.3961   0.6083   0.6942
     5.4535   5.7116   6.0277   6.3521   6.6682   7.2100   7.4719   7.9299
     8.2323   8.5586   8.5675   8.7406   9.5131   9.6085   9.7454   9.8844
    10.1025  10.2623  10.4503  10.8643  11.6494  11.7594  11.8371  11.8870
    11.9249  12.0143  12.1087  12.1938  12.2899  12.4113  12.4797  12.5249
    14.0584  14.4141  14.4641  14.5919  14.7071  14.7651  15.1216  15.2501
    15.5808  15.7356  15.9754  16.1232  19.0781  19.2463  19.3318  19.9578
    20.1616  20.3589  20.4984  20.7427  21.0667  21.3784  21.5294  21.8388
    21.9419  22.1933  22.4320  22.9150

          k = 0.7500 0.3875 0.3625 ( 10712 PWs)   bands (ev):

   -73.4076 -73.4076 -73.4076 -73.4076 -39.7150 -39.7147 -39.7146 -39.7143
   -39.7130 -39.7129 -39.7125 -39.7125 -39.4648 -39.4647 -39.4647 -39.4647
    -3.0423  -2.5149  -2.4307  -2.2564   0.3454   0.3973   0.6046   0.6931
     5.4541   5.7247   6.0136   6.3524   6.6692   7.2375   7.4419   7.9281
     8.2425   8.5520   8.5687   8.7428   9.5100   9.6247   9.7328   9.8858
    10.0987  10.2782  10.4422  10.8681  11.6458  11.7589  11.8382  11.8844
    11.9187  12.0195  12.1022  12.2008  12.2866  12.4156  12.4756  12.5245
    14.0560  14.4181  14.4641  14.5918  14.7008  14.7627  15.1208  15.2531
    15.5810  15.7358  15.9770  16.1269  19.0760  19.2322  19.3357  19.9699
    20.1954  20.3441  20.5037  20.7656  21.0589  21.3189  21.5069  21.8542
    21.9595  22.1660  22.4521  22.9178

          k = 0.7500 0.3812 0.3687 ( 10706 PWs)   bands (ev):

   -73.4076 -73.4076 -73.4076 -73.4076 -39.7150 -39.7147 -39.7146 -39.7143
   -39.7130 -39.7129 -39.7125 -39.7124 -39.4648 -39.4647 -39.4647 -39.4647
    -3.0430  -2.4937  -2.4504  -2.2568   0.3452   0.3985   0.6019   0.6923
     5.4549   5.7353   6.0027   6.3528   6.6695   7.2494   7.4268   7.9270
     8.2515   8.5435   8.5722   8.7451   9.5055   9.6403   9.7207   9.8880
    10.0949  10.2929  10.4343  10.8707  11.6433  11.7583  11.8395  11.8825
    11.9125  12.0236  12.0968  12.2074  12.2839  12.4204  12.4713  12.5243
    14.0542  14.4146  14.4710  14.5919  14.6949  14.7604  15.1206  15.2557
    15.5820  15.7355  15.9791  16.1299  19.0740  19.2181  19.3412  19.9788
    20.2268  20.3248  20.5151  20.7897  21.0494  21.2645  21.4824  21.8685
    21.9803  22.1417  22.4727  22.9159

          k = 0.7500 0.3750 0.3750 ( 10699 PWs)   bands (ev):

   -73.4076 -73.4076 -73.4076 -73.4076 -39.7150 -39.7147 -39.7146 -39.7143
   -39.7130 -39.7129 -39.7125 -39.7124 -39.4648 -39.4647 -39.4647 -39.4646
    -3.0432  -2.4763  -2.4671  -2.2569   0.3453   0.3996   0.6002   0.6917
     5.4559   5.7424   5.9961   6.3533   6.6689   7.2389   7.4335   7.9265
     8.2588   8.5354   8.5757   8.7473   9.4997   9.6533   9.7111   9.8907
    10.0914  10.3054  10.4271  10.8719  11.6420  11.7573  11.8412  11.8811
    11.9066  12.0260  12.0929  12.2133  12.2821  12.4255  12.4669  12.5244
    14.0530  14.4065  14.4819  14.5921  14.6896  14.7583  15.1210  15.2576
    15.5838  15.7348  15.9816  16.1322  19.0719  19.2048  19.3479  19.9839
    20.2511  20.3074  20.5331  20.8089  21.0396  21.2192  21.4566  21.8788
    22.0039  22.1233  22.4928  22.9094

     Writing all to output data dir ./work/pwscf.save/

     init_run     :      1.21s CPU      1.31s WALL (       1 calls)
     electrons    :    154.37s CPU    160.54s WALL (       1 calls)

     Called by init_run:
     wfcinit      :      0.00s CPU      0.00s WALL (       1 calls)
     wfcinit:atom :      0.09s CPU      0.11s WALL (     101 calls)
     wfcinit:wfcr :      7.66s CPU      8.20s WALL (     101 calls)
     potinit      :      0.48s CPU      0.52s WALL (       1 calls)
     hinit0       :      0.45s CPU      0.46s WALL (       1 calls)

     Called by electrons:
     c_bands      :    154.37s CPU    160.53s WALL (       1 calls)
     v_of_rho     :      0.03s CPU      0.03s WALL (       1 calls)
     v_h          :      0.00s CPU      0.00s WALL (       1 calls)
     v_xc         :      0.02s CPU      0.02s WALL (       1 calls)
     newd         :      0.07s CPU      0.11s WALL (       1 calls)
     PAW_pot      :      0.17s CPU      0.18s WALL (       1 calls)

     Called by c_bands:
     init_us_2    :      0.09s CPU      0.10s WALL (     101 calls)
     init_us_2:cp :      0.09s CPU      0.10s WALL (     101 calls)
     cegterg      :    145.53s CPU    150.61s WALL (     215 calls)

     Called by sum_band:

     Called by *egterg:
     cdiaghg      :     22.61s CPU     22.77s WALL (    3345 calls)
     cegterg:over :     15.76s CPU     16.02s WALL (    3244 calls)
     cegterg:upda :      5.65s CPU      5.71s WALL (    3244 calls)
     cegterg:last :     13.06s CPU     13.07s WALL (    1234 calls)
     h_psi        :     77.17s CPU     82.04s WALL (    3560 calls)
     s_psi        :      7.37s CPU      7.54s WALL (    3560 calls)
     g_psi        :      0.43s CPU      0.43s WALL (    3244 calls)

     Called by h_psi:
     h_psi:calbec :     11.35s CPU     11.90s WALL (    3560 calls)
     vloc_psi     :     57.20s CPU     61.35s WALL (    3560 calls)
     add_vuspsi   :      8.12s CPU      8.28s WALL (    3560 calls)

     General routines
     calbec       :     11.34s CPU     11.89s WALL (    3560 calls)
     fft          :      0.37s CPU      0.38s WALL (      13 calls)
     ffts         :      0.27s CPU      0.27s WALL (       1 calls)
     fftw         :     53.20s CPU     57.07s WALL (  220688 calls)
     interpolate  :      0.27s CPU      0.27s WALL (       1 calls)

     Parallel routines

     PAW routines
     PAW_pot      :      0.17s CPU      0.18s WALL (       1 calls)

     PWSCF        :   2m36.70s CPU   2m55.40s WALL


   This run was terminated on:  10:37:12  22Sep2023            

=------------------------------------------------------------------------------=
   JOB DONE.
=------------------------------------------------------------------------------=
