
     Program BANDS v.7.1 starts on 25Sep2023 at 16:43:24 

     This program is part of the open-source Quantum ESPRESSO suite
     for quantum simulation of materials; please cite
         "P. Giannozzi et al., J. Phys.:Condens. Matter 21 395502 (2009);
         "P. Giannozzi et al., J. Phys.:Condens. Matter 29 465901 (2017);
         "P. Giannozzi et al., J. Chem. Phys. 152 154105 (2020);
          URL http://www.quantum-espresso.org", 
     in publications or presentations arising from this work. More details at
     http://www.quantum-espresso.org/quote

     Parallel version (MPI & OpenMP), running on      10 processor cores
     Number of MPI processes:                10
     Threads/MPI process:                     1

     MPI processes distributed on     1 nodes
     R & G space division:  proc/nbgrp/npool/nimage =      10
     11155 MiB available memory on the printing compute node when the environment starts


     Reading xml data from directory:

     ./work/pwscf.save/

     IMPORTANT: XC functional enforced from input :
     Exchange-correlation= PBE
                           (   1   4   3   4   0   0   0)
     Any further DFT definition will be discarded
     Please, verify this is what you really want


     Parallelization info
     --------------------
     sticks:   dense  smooth     PW     G-vecs:    dense   smooth      PW
     Min         174     174     50                 5452     5452     870
     Max         175     175     51                 5457     5457     871
     Sum        1741    1741    509                54531    54531    8709

     Using Slab Decomposition

     Reading collected, re-writing distributed wavefunctions
     high-symmetry point:  0.5000 0.2500 0.7500   x coordinate   0.0000
     high-symmetry point:  0.0000 0.5000 0.0000   x coordinate   0.9354
     high-symmetry point:  0.0000 0.0000 0.0000   x coordinate   1.4354
     high-symmetry point:  0.0000 0.5000 0.5000   x coordinate   2.1425
     high-symmetry point:  0.7500 0.5000 0.2500   x coordinate   2.9331
     high-symmetry point:  0.7500 0.3750 0.3750   x coordinate   3.1099

     Plottable bands (eV) written to file bands.out.gnu
     Bands written to file bands.out

 **************************************************************************

                    xk=(   0.50000,   0.25000,   0.75000  )

     point group C_2v (mm2) 
     there are  4 classes
     the character table:

       E     C2    s_v   s_v' 
A_1    1.00  1.00  1.00  1.00
A_2    1.00  1.00 -1.00 -1.00
B_1    1.00 -1.00  1.00 -1.00
B_2    1.00 -1.00 -1.00  1.00

     the symmetry operations in each class and the name of the first element:

     E        1
                                                                 
     C2       2
                                                                 
     s_v      3
                                                                 
     s_v'     4
                                                                 

     Band symmetry, C_2v (mm2)  point group:

     e(  1 -  1) =     -3.68269  eV     1   --> B_2  D_4  S_4  
     e(  2 -  2) =     -3.68080  eV     1   --> A_1  D_1  S_1  
     e(  3 -  3) =     -3.01384  eV     1   --> A_2  D_2  S_2  
     e(  4 -  4) =     -3.01170  eV     1   --> A_1  D_1  S_1  
     e(  5 -  5) =      0.03048  eV     1   --> B_2  D_4  S_4  
     e(  6 -  6) =      0.03121  eV     1   --> B_1  D_3  S_3  
     e(  7 -  7) =      0.73207  eV     1   --> B_2  D_4  S_4  
     e(  8 -  8) =      0.73269  eV     1   --> A_1  D_1  S_1  
     e(  9 -  9) =      1.90846  eV     1   --> A_2  D_2  S_2  
     e( 10 - 10) =      1.91003  eV     1   --> A_1  D_1  S_1  
     e( 11 - 11) =      2.92605  eV     1   --> B_1  D_3  S_3  
     e( 12 - 12) =      2.92629  eV     1   --> B_2  D_4  S_4  
     e( 13 - 14) =      3.18330  eV     2   --> A_1  D_1  S_1  
     e( 13 - 14) =      3.18330  eV     2   --> B_2  D_4  S_4  
     e( 15 - 15) =      3.37793  eV     1   --> A_2  D_2  S_2  
     e( 16 - 16) =      3.37969  eV     1   --> B_1  D_3  S_3  
     e( 17 - 17) =      6.13793  eV     1   --> B_2  D_4  S_4  
     e( 18 - 18) =      6.13904  eV     1   --> A_1  D_1  S_1  
     e( 19 - 20) =      6.53975  eV     2   --> B_1  D_3  S_3  
     e( 19 - 20) =      6.53975  eV     2   --> B_2  D_4  S_4  
     e( 21 - 22) =      6.76878  eV     2   --> A_1  D_1  S_1  
     e( 21 - 22) =      6.76878  eV     2   --> A_2  D_2  S_2  
     e( 23 - 24) =      7.20749  eV     2   --> A_1  D_1  S_1  
     e( 23 - 24) =      7.20749  eV     2   --> B_2  D_4  S_4  
     e( 25 - 25) =      7.89944  eV     1   --> A_2  D_2  S_2  
     e( 26 - 26) =      7.89978  eV     1   --> B_1  D_3  S_3  
     e( 27 - 27) =      8.26172  eV     1   --> B_2  D_4  S_4  
     e( 28 - 28) =      8.26294  eV     1   --> A_1  D_1  S_1  
     e( 29 - 29) =      8.87478  eV     1   --> A_2  D_2  S_2  
     e( 30 - 30) =      8.87632  eV     1   --> A_1  D_1  S_1  
     e( 31 - 31) =      9.42857  eV     1   --> B_1  D_3  S_3  
     e( 32 - 32) =      9.42886  eV     1   --> B_2  D_4  S_4  
     e( 33 - 34) =     10.19920  eV     2   --> A_1  D_1  S_1  
     e( 33 - 34) =     10.19920  eV     2   --> A_2  D_2  S_2  
     e( 35 - 35) =     10.69535  eV     1   --> B_2  D_4  S_4  
     e( 36 - 36) =     10.69588  eV     1   --> A_1  D_1  S_1  
     e( 37 - 37) =     11.23834  eV     1   --> A_2  D_2  S_2  
     e( 38 - 38) =     11.23848  eV     1   --> B_1  D_3  S_3  
     e( 39 - 39) =     11.62969  eV     1   --> A_1  D_1  S_1  
     e( 40 - 40) =     11.62989  eV     1   --> B_2  D_4  S_4  
     e( 41 - 41) =     11.84704  eV     1   --> B_2  D_4  S_4  
     e( 42 - 42) =     11.84778  eV     1   --> B_1  D_3  S_3  
     e( 43 - 43) =     13.08465  eV     1   --> B_2  D_4  S_4  
     e( 44 - 44) =     13.08585  eV     1   --> B_1  D_3  S_3  
     e( 45 - 45) =     13.25668  eV     1   --> A_2  D_2  S_2  
     e( 46 - 46) =     13.25807  eV     1   --> A_1  D_1  S_1  
     e( 47 - 48) =     14.43579  eV     2   --> A_2  D_2  S_2  
     e( 47 - 48) =     14.43579  eV     2   --> B_1  D_3  S_3  

 **************************************************************************

 **************************************************************************

                    xk=(   0.47500,   0.26250,   0.71250  )

     point group C_1 (1)    
     there are  1 classes
     the character table:

       E    
A      1.00

     the symmetry operations in each class and the name of the first element:

     E        1
                                                                 

     Band symmetry, C_1 (1)     point group:

     e(  1 -  1) =     -3.68299  eV     1   --> A              
     e(  2 -  2) =     -3.57017  eV     1   --> A              
     e(  3 -  3) =     -3.06405  eV     1   --> A              
     e(  4 -  4) =     -3.05587  eV     1   --> A              
     e(  5 -  5) =     -0.03758  eV     1   --> A              
     e(  6 -  6) =     -0.02981  eV     1   --> A              
     e(  7 -  7) =      0.49753  eV     1   --> A              
     e(  8 -  8) =      0.62445  eV     1   --> A              
     e(  9 -  9) =      2.09353  eV     1   --> A              
     e( 10 - 10) =      2.11240  eV     1   --> A              
     e( 11 - 11) =      3.06247  eV     1   --> A              
     e( 12 - 12) =      3.07162  eV     1   --> A              
     e( 13 - 13) =      3.08862  eV     1   --> A              
     e( 14 - 14) =      3.33357  eV     1   --> A              
     e( 15 - 15) =      3.37919  eV     1   --> A              
     e( 16 - 16) =      3.50237  eV     1   --> A              
     e( 17 - 17) =      6.10756  eV     1   --> A              
     e( 18 - 18) =      6.18571  eV     1   --> A              
     e( 19 - 19) =      6.35986  eV     1   --> A              
     e( 20 - 20) =      6.47495  eV     1   --> A              
     e( 21 - 21) =      6.73271  eV     1   --> A              
     e( 22 - 22) =      6.85830  eV     1   --> A              
     e( 23 - 23) =      6.99878  eV     1   --> A              
     e( 24 - 24) =      7.14225  eV     1   --> A              
     e( 25 - 25) =      7.67315  eV     1   --> A              
     e( 26 - 26) =      7.81740  eV     1   --> A              
     e( 27 - 27) =      8.52958  eV     1   --> A              
     e( 28 - 28) =      8.54066  eV     1   --> A              
     e( 29 - 29) =      8.54544  eV     1   --> A              
     e( 30 - 30) =      8.68780  eV     1   --> A              
     e( 31 - 31) =      9.52956  eV     1   --> A              
     e( 32 - 32) =      9.60276  eV     1   --> A              
     e( 33 - 33) =     10.42923  eV     1   --> A              
     e( 34 - 34) =     10.43971  eV     1   --> A              
     e( 35 - 35) =     10.50269  eV     1   --> A              
     e( 36 - 36) =     10.66831  eV     1   --> A              
     e( 37 - 37) =     11.09236  eV     1   --> A              
     e( 38 - 38) =     11.51383  eV     1   --> A              
     e( 39 - 39) =     11.56297  eV     1   --> A              
     e( 40 - 40) =     11.61124  eV     1   --> A              
     e( 41 - 41) =     11.62994  eV     1   --> A              
     e( 42 - 42) =     11.97265  eV     1   --> A              
     e( 43 - 43) =     12.82308  eV     1   --> A              
     e( 44 - 44) =     12.88751  eV     1   --> A              
     e( 45 - 45) =     13.28483  eV     1   --> A              
     e( 46 - 46) =     13.36919  eV     1   --> A              
     e( 47 - 47) =     13.96257  eV     1   --> A              
     e( 48 - 48) =     14.43496  eV     1   --> A              

 **************************************************************************

 **************************************************************************

                    xk=(   0.45000,   0.27500,   0.67500  )

     Band symmetry, C_1 (1)     point group:

     e(  1 -  1) =     -3.67374  eV     1   --> A              
     e(  2 -  2) =     -3.46145  eV     1   --> A              
     e(  3 -  3) =     -3.12509  eV     1   --> A              
     e(  4 -  4) =     -3.09237  eV     1   --> A              
     e(  5 -  5) =     -0.09353  eV     1   --> A              
     e(  6 -  6) =     -0.06097  eV     1   --> A              
     e(  7 -  7) =      0.28814  eV     1   --> A              
     e(  8 -  8) =      0.52198  eV     1   --> A              
     e(  9 -  9) =      2.25598  eV     1   --> A              
     e( 10 - 10) =      2.33016  eV     1   --> A              
     e( 11 - 11) =      2.98508  eV     1   --> A              
     e( 12 - 12) =      3.18839  eV     1   --> A              
     e( 13 - 13) =      3.21521  eV     1   --> A              
     e( 14 - 14) =      3.38762  eV     1   --> A              
     e( 15 - 15) =      3.41298  eV     1   --> A              
     e( 16 - 16) =      3.66258  eV     1   --> A              
     e( 17 - 17) =      6.10444  eV     1   --> A              
     e( 18 - 18) =      6.12173  eV     1   --> A              
     e( 19 - 19) =      6.14768  eV     1   --> A              
     e( 20 - 20) =      6.36158  eV     1   --> A              
     e( 21 - 21) =      6.77336  eV     1   --> A              
     e( 22 - 22) =      6.93784  eV     1   --> A              
     e( 23 - 23) =      7.03787  eV     1   --> A              
     e( 24 - 24) =      7.06490  eV     1   --> A              
     e( 25 - 25) =      7.46848  eV     1   --> A              
     e( 26 - 26) =      7.75338  eV     1   --> A              
     e( 27 - 27) =      8.18056  eV     1   --> A              
     e( 28 - 28) =      8.22525  eV     1   --> A              
     e( 29 - 29) =      8.84225  eV     1   --> A              
     e( 30 - 30) =      9.10756  eV     1   --> A              
     e( 31 - 31) =      9.52122  eV     1   --> A              
     e( 32 - 32) =      9.73057  eV     1   --> A              
     e( 33 - 33) =     10.20114  eV     1   --> A              
     e( 34 - 34) =     10.64494  eV     1   --> A              
     e( 35 - 35) =     10.72013  eV     1   --> A              
     e( 36 - 36) =     10.81831  eV     1   --> A              
     e( 37 - 37) =     10.92613  eV     1   --> A              
     e( 38 - 38) =     11.40423  eV     1   --> A              
     e( 39 - 39) =     11.53583  eV     1   --> A              
     e( 40 - 40) =     11.56224  eV     1   --> A              
     e( 41 - 41) =     11.75497  eV     1   --> A              
     e( 42 - 42) =     12.38641  eV     1   --> A              
     e( 43 - 43) =     12.53442  eV     1   --> A              
     e( 44 - 44) =     12.67265  eV     1   --> A              
     e( 45 - 45) =     13.35632  eV     1   --> A              
     e( 46 - 46) =     13.44263  eV     1   --> A              
     e( 47 - 47) =     13.56794  eV     1   --> A              
     e( 48 - 48) =     14.38481  eV     1   --> A              

 **************************************************************************

 **************************************************************************

                    xk=(   0.42500,   0.28750,   0.63750  )

     Band symmetry, C_1 (1)     point group:

     e(  1 -  1) =     -3.65411  eV     1   --> A              
     e(  2 -  2) =     -3.36051  eV     1   --> A              
     e(  3 -  3) =     -3.19528  eV     1   --> A              
     e(  4 -  4) =     -3.12095  eV     1   --> A              
     e(  5 -  5) =     -0.13649  eV     1   --> A              
     e(  6 -  6) =     -0.06127  eV     1   --> A              
     e(  7 -  7) =      0.10985  eV     1   --> A              
     e(  8 -  8) =      0.42805  eV     1   --> A              
     e(  9 -  9) =      2.39557  eV     1   --> A              
     e( 10 - 10) =      2.55881  eV     1   --> A              
     e( 11 - 11) =      2.88546  eV     1   --> A              
     e( 12 - 12) =      3.29848  eV     1   --> A              
     e( 13 - 13) =      3.33048  eV     1   --> A              
     e( 14 - 14) =      3.39160  eV     1   --> A              
     e( 15 - 15) =      3.46033  eV     1   --> A              
     e( 16 - 16) =      3.78859  eV     1   --> A              
     e( 17 - 17) =      5.99701  eV     1   --> A              
     e( 18 - 18) =      6.01542  eV     1   --> A              
     e( 19 - 19) =      6.13080  eV     1   --> A              
     e( 20 - 20) =      6.26127  eV     1   --> A              
     e( 21 - 21) =      6.82454  eV     1   --> A              
     e( 22 - 22) =      6.97134  eV     1   --> A              
     e( 23 - 23) =      7.00191  eV     1   --> A              
     e( 24 - 24) =      7.20013  eV     1   --> A              
     e( 25 - 25) =      7.28136  eV     1   --> A              
     e( 26 - 26) =      7.71616  eV     1   --> A              
     e( 27 - 27) =      7.84980  eV     1   --> A              
     e( 28 - 28) =      7.94287  eV     1   --> A              
     e( 29 - 29) =      9.14511  eV     1   --> A              
     e( 30 - 30) =      9.45898  eV     1   --> A              
     e( 31 - 31) =      9.48369  eV     1   --> A              
     e( 32 - 32) =      9.82205  eV     1   --> A              
     e( 33 - 33) =     10.07275  eV     1   --> A              
     e( 34 - 34) =     10.64766  eV     1   --> A              
     e( 35 - 35) =     10.78149  eV     1   --> A              
     e( 36 - 36) =     10.83741  eV     1   --> A              
     e( 37 - 37) =     10.95470  eV     1   --> A              
     e( 38 - 38) =     11.29770  eV     1   --> A              
     e( 39 - 39) =     11.59818  eV     1   --> A              
     e( 40 - 40) =     11.79228  eV     1   --> A              
     e( 41 - 41) =     11.97588  eV     1   --> A              
     e( 42 - 42) =     12.29053  eV     1   --> A              
     e( 43 - 43) =     12.47518  eV     1   --> A              
     e( 44 - 44) =     12.73316  eV     1   --> A              
     e( 45 - 45) =     13.00085  eV     1   --> A              
     e( 46 - 46) =     13.39445  eV     1   --> A              
     e( 47 - 47) =     13.77085  eV     1   --> A              
     e( 48 - 48) =     14.13527  eV     1   --> A              

 **************************************************************************

 **************************************************************************

                    xk=(   0.40000,   0.30000,   0.60000  )

     point group C_s (m)    
     there are  2 classes
     the character table:

       E     s    
A'     1.00  1.00
A''    1.00 -1.00

     the symmetry operations in each class and the name of the first element:

     E        1
                                                                 
     s        2
                                                                 

     Band symmetry, C_s (m)     point group:

     e(  1 -  1) =     -3.62439  eV     1   --> A'             
     e(  2 -  2) =     -3.27406  eV     1   --> A''            
     e(  3 -  3) =     -3.27205  eV     1   --> A'             
     e(  4 -  4) =     -3.14115  eV     1   --> A'             
     e(  5 -  5) =     -0.16622  eV     1   --> A'             
     e(  6 -  6) =     -0.03144  eV     1   --> A'             
     e(  7 -  7) =     -0.03083  eV     1   --> A''            
     e(  8 -  8) =      0.34478  eV     1   --> A'             
     e(  9 -  9) =      2.51026  eV     1   --> A'             
     e( 10 - 10) =      2.79363  eV     1   --> A''            
     e( 11 - 11) =      2.79444  eV     1   --> A'             
     e( 12 - 12) =      3.38700  eV     1   --> A''            
     e( 13 - 13) =      3.38838  eV     1   --> A'             
     e( 14 - 14) =      3.39203  eV     1   --> A''            
     e( 15 - 15) =      3.48952  eV     1   --> A'             
     e( 16 - 16) =      3.82728  eV     1   --> A''            
     e( 17 - 17) =      5.91865  eV     1   --> A'             
     e( 18 - 18) =      5.99340  eV     1   --> A'             
     e( 19 - 19) =      6.18640  eV     1   --> A'             
     e( 20 - 20) =      6.18650  eV     1   --> A''            
     e( 21 - 21) =      6.86232  eV     1   --> A''            
     e( 22 - 22) =      6.86350  eV     1   --> A'             
     e( 23 - 23) =      7.09588  eV     1   --> A''            
     e( 24 - 24) =      7.12782  eV     1   --> A'             
     e( 25 - 25) =      7.24233  eV     1   --> A'             
     e( 26 - 26) =      7.63132  eV     1   --> A''            
     e( 27 - 28) =      7.70868  eV     2   --> A'             
     e( 27 - 28) =      7.70868  eV     2   --> A''            
     e( 29 - 30) =      9.44154  eV     2   --> A'             
     e( 29 - 30) =      9.44154  eV     2   --> A''            
     e( 31 - 31) =      9.58649  eV     1   --> A'             
     e( 32 - 32) =      9.88326  eV     1   --> A'             
     e( 33 - 33) =     10.13911  eV     1   --> A''            
     e( 34 - 34) =     10.68641  eV     1   --> A'             
     e( 35 - 35) =     10.68667  eV     1   --> A''            
     e( 36 - 36) =     10.74384  eV     1   --> A'             
     e( 37 - 37) =     11.00201  eV     1   --> A'             
     e( 38 - 38) =     11.35629  eV     1   --> A''            
     e( 39 - 39) =     11.65886  eV     1   --> A'             
     e( 40 - 40) =     12.11413  eV     1   --> A''            
     e( 41 - 41) =     12.11440  eV     1   --> A'             
     e( 42 - 42) =     12.17837  eV     1   --> A'             
     e( 43 - 43) =     12.42824  eV     1   --> A'             
     e( 44 - 44) =     12.42850  eV     1   --> A''            
     e( 45 - 46) =     13.22353  eV     2   --> A'             
     e( 45 - 46) =     13.22353  eV     2   --> A''            
     e( 47 - 47) =     13.85497  eV     1   -->   ?
     e( 48 - 48) =     13.97705  eV     1   -->   ?

 **************************************************************************

 **************************************************************************

                    xk=(   0.37500,   0.31250,   0.56250  )

     point group C_1 (1)    
     there are  1 classes
     the character table:

       E    
A      1.00

     the symmetry operations in each class and the name of the first element:

     E        1
                                                                 

     Band symmetry, C_1 (1)     point group:

     e(  1 -  1) =     -3.58491  eV     1   --> A              
     e(  2 -  2) =     -3.35603  eV     1   --> A              
     e(  3 -  3) =     -3.20533  eV     1   --> A              
     e(  4 -  4) =     -3.15220  eV     1   --> A              
     e(  5 -  5) =     -0.18254  eV     1   --> A              
     e(  6 -  6) =     -0.12846  eV     1   --> A              
     e(  7 -  7) =      0.02799  eV     1   --> A              
     e(  8 -  8) =      0.27365  eV     1   --> A              
     e(  9 -  9) =      2.59208  eV     1   --> A              
     e( 10 - 10) =      2.71294  eV     1   --> A              
     e( 11 - 11) =      3.03009  eV     1   --> A              
     e( 12 - 12) =      3.37552  eV     1   --> A              
     e( 13 - 13) =      3.39396  eV     1   --> A              
     e( 14 - 14) =      3.45282  eV     1   --> A              
     e( 15 - 15) =      3.49991  eV     1   --> A              
     e( 16 - 16) =      3.75555  eV     1   --> A              
     e( 17 - 17) =      5.93316  eV     1   --> A              
     e( 18 - 18) =      6.09159  eV     1   --> A              
     e( 19 - 19) =      6.13488  eV     1   --> A              
     e( 20 - 20) =      6.26874  eV     1   --> A              
     e( 21 - 21) =      6.74628  eV     1   --> A              
     e( 22 - 22) =      6.87471  eV     1   --> A              
     e( 23 - 23) =      6.97155  eV     1   --> A              
     e( 24 - 24) =      7.01931  eV     1   --> A              
     e( 25 - 25) =      7.22448  eV     1   --> A              
     e( 26 - 26) =      7.54028  eV     1   --> A              
     e( 27 - 27) =      7.66642  eV     1   --> A              
     e( 28 - 28) =      7.72921  eV     1   --> A              
     e( 29 - 29) =      9.40408  eV     1   --> A              
     e( 30 - 30) =      9.53952  eV     1   --> A              
     e( 31 - 31) =      9.70735  eV     1   --> A              
     e( 32 - 32) =      9.91915  eV     1   --> A              
     e( 33 - 33) =     10.22038  eV     1   --> A              
     e( 34 - 34) =     10.52534  eV     1   --> A              
     e( 35 - 35) =     10.77279  eV     1   --> A              
     e( 36 - 36) =     10.95190  eV     1   --> A              
     e( 37 - 37) =     10.99144  eV     1   --> A              
     e( 38 - 38) =     11.33184  eV     1   --> A              
     e( 39 - 39) =     11.74533  eV     1   --> A              
     e( 40 - 40) =     11.77082  eV     1   --> A              
     e( 41 - 41) =     11.99128  eV     1   --> A              
     e( 42 - 42) =     12.31970  eV     1   --> A              
     e( 43 - 43) =     12.50149  eV     1   --> A              
     e( 44 - 44) =     12.68892  eV     1   --> A              
     e( 45 - 45) =     12.96948  eV     1   --> A              
     e( 46 - 46) =     13.28122  eV     1   --> A              
     e( 47 - 47) =     13.59086  eV     1   --> A              
     e( 48 - 48) =     14.02944  eV     1   --> A              

 **************************************************************************

 **************************************************************************

                    xk=(   0.35000,   0.32500,   0.52500  )

     Band symmetry, C_1 (1)     point group:

     e(  1 -  1) =     -3.53629  eV     1   --> A              
     e(  2 -  2) =     -3.44166  eV     1   --> A              
     e(  3 -  3) =     -3.16296  eV     1   --> A              
     e(  4 -  4) =     -3.15411  eV     1   --> A              
     e(  5 -  5) =     -0.18540  eV     1   --> A              
     e(  6 -  6) =     -0.17663  eV     1   --> A              
     e(  7 -  7) =      0.11395  eV     1   --> A              
     e(  8 -  8) =      0.21577  eV     1   --> A              
     e(  9 -  9) =      2.62301  eV     1   --> A              
     e( 10 - 10) =      2.64358  eV     1   --> A              
     e( 11 - 11) =      3.25667  eV     1   --> A              
     e( 12 - 12) =      3.35601  eV     1   --> A              
     e( 13 - 13) =      3.36117  eV     1   --> A              
     e( 14 - 14) =      3.47522  eV     1   --> A              
     e( 15 - 15) =      3.49550  eV     1   --> A              
     e( 16 - 16) =      3.60212  eV     1   --> A              
     e( 17 - 17) =      6.01398  eV     1   --> A              
     e( 18 - 18) =      6.09595  eV     1   --> A              
     e( 19 - 19) =      6.29125  eV     1   --> A              
     e( 20 - 20) =      6.36740  eV     1   --> A              
     e( 21 - 21) =      6.63590  eV     1   --> A              
     e( 22 - 22) =      6.72748  eV     1   --> A              
     e( 23 - 23) =      6.86582  eV     1   --> A              
     e( 24 - 24) =      6.88272  eV     1   --> A              
     e( 25 - 25) =      7.32950  eV     1   --> A              
     e( 26 - 26) =      7.44150  eV     1   --> A              
     e( 27 - 27) =      7.76278  eV     1   --> A              
     e( 28 - 28) =      7.77423  eV     1   --> A              
     e( 29 - 29) =      9.37829  eV     1   --> A              
     e( 30 - 30) =      9.44836  eV     1   --> A              
     e( 31 - 31) =      9.89452  eV     1   --> A              
     e( 32 - 32) =      9.93551  eV     1   --> A              
     e( 33 - 33) =     10.25841  eV     1   --> A              
     e( 34 - 34) =     10.38886  eV     1   --> A              
     e( 35 - 35) =     10.91114  eV     1   --> A              
     e( 36 - 36) =     10.98815  eV     1   --> A              
     e( 37 - 37) =     11.23433  eV     1   --> A              
     e( 38 - 38) =     11.31555  eV     1   --> A              
     e( 39 - 39) =     11.35159  eV     1   --> A              
     e( 40 - 40) =     11.75989  eV     1   --> A              
     e( 41 - 41) =     11.87652  eV     1   --> A              
     e( 42 - 42) =     12.27271  eV     1   --> A              
     e( 43 - 43) =     12.62273  eV     1   --> A              
     e( 44 - 44) =     12.69651  eV     1   --> A              
     e( 45 - 45) =     13.14449  eV     1   --> A              
     e( 46 - 46) =     13.23378  eV     1   --> A              
     e( 47 - 47) =     13.42413  eV     1   --> A              
     e( 48 - 48) =     13.90549  eV     1   --> A              

 **************************************************************************

 **************************************************************************

                    xk=(   0.32500,   0.33750,   0.48750  )

     Band symmetry, C_1 (1)     point group:

     e(  1 -  1) =     -3.52761  eV     1   --> A              
     e(  2 -  2) =     -3.47912  eV     1   --> A              
     e(  3 -  3) =     -3.14957  eV     1   --> A              
     e(  4 -  4) =     -3.14657  eV     1   --> A              
     e(  5 -  5) =     -0.17484  eV     1   --> A              
     e(  6 -  6) =     -0.17256  eV     1   --> A              
     e(  7 -  7) =      0.17198  eV     1   --> A              
     e(  8 -  8) =      0.22432  eV     1   --> A              
     e(  9 -  9) =      2.58161  eV     1   --> A              
     e( 10 - 10) =      2.58700  eV     1   --> A              
     e( 11 - 11) =      3.31427  eV     1   --> A              
     e( 12 - 12) =      3.33076  eV     1   --> A              
     e( 13 - 13) =      3.33228  eV     1   --> A              
     e( 14 - 14) =      3.43269  eV     1   --> A              
     e( 15 - 15) =      3.50003  eV     1   --> A              
     e( 16 - 16) =      3.54785  eV     1   --> A              
     e( 17 - 17) =      6.05775  eV     1   --> A              
     e( 18 - 18) =      6.09246  eV     1   --> A              
     e( 19 - 19) =      6.38055  eV     1   --> A              
     e( 20 - 20) =      6.41408  eV     1   --> A              
     e( 21 - 21) =      6.60286  eV     1   --> A              
     e( 22 - 22) =      6.64014  eV     1   --> A              
     e( 23 - 23) =      6.87259  eV     1   --> A              
     e( 24 - 24) =      6.87295  eV     1   --> A              
     e( 25 - 25) =      7.38612  eV     1   --> A              
     e( 26 - 26) =      7.44241  eV     1   --> A              
     e( 27 - 27) =      7.83729  eV     1   --> A              
     e( 28 - 28) =      7.84051  eV     1   --> A              
     e( 29 - 29) =      9.32853  eV     1   --> A              
     e( 30 - 30) =      9.37206  eV     1   --> A              
     e( 31 - 31) =      9.91591  eV     1   --> A              
     e( 32 - 32) =      9.92759  eV     1   --> A              
     e( 33 - 33) =     10.27986  eV     1   --> A              
     e( 34 - 34) =     10.35460  eV     1   --> A              
     e( 35 - 35) =     10.92297  eV     1   --> A              
     e( 36 - 36) =     10.93949  eV     1   --> A              
     e( 37 - 37) =     11.22928  eV     1   --> A              
     e( 38 - 38) =     11.25732  eV     1   --> A              
     e( 39 - 39) =     11.41907  eV     1   --> A              
     e( 40 - 40) =     11.64305  eV     1   --> A              
     e( 41 - 41) =     11.91826  eV     1   --> A              
     e( 42 - 42) =     12.11698  eV     1   --> A              
     e( 43 - 43) =     12.72882  eV     1   --> A              
     e( 44 - 44) =     12.75487  eV     1   --> A              
     e( 45 - 45) =     13.11576  eV     1   --> A              
     e( 46 - 46) =     13.14549  eV     1   --> A              
     e( 47 - 47) =     13.61591  eV     1   --> A              
     e( 48 - 48) =     13.85843  eV     1   --> A              

 **************************************************************************

 **************************************************************************

                    xk=(   0.30000,   0.35000,   0.45000  )

     Band symmetry, C_1 (1)     point group:

     e(  1 -  1) =     -3.61137  eV     1   --> A              
     e(  2 -  2) =     -3.41432  eV     1   --> A              
     e(  3 -  3) =     -3.16429  eV     1   --> A              
     e(  4 -  4) =     -3.13066  eV     1   --> A              
     e(  5 -  5) =     -0.15081  eV     1   --> A              
     e(  6 -  6) =     -0.11681  eV     1   --> A              
     e(  7 -  7) =      0.14295  eV     1   --> A              
     e(  8 -  8) =      0.35652  eV     1   --> A              
     e(  9 -  9) =      2.46691  eV     1   --> A              
     e( 10 - 10) =      2.54382  eV     1   --> A              
     e( 11 - 11) =      3.05657  eV     1   --> A              
     e( 12 - 12) =      3.30162  eV     1   --> A              
     e( 13 - 13) =      3.32160  eV     1   --> A              
     e( 14 - 14) =      3.43677  eV     1   --> A              
     e( 15 - 15) =      3.46417  eV     1   --> A              
     e( 16 - 16) =      3.69296  eV     1   --> A              
     e( 17 - 17) =      6.02336  eV     1   --> A              
     e( 18 - 18) =      6.12332  eV     1   --> A              
     e( 19 - 19) =      6.14931  eV     1   --> A              
     e( 20 - 20) =      6.33353  eV     1   --> A              
     e( 21 - 21) =      6.72350  eV     1   --> A              
     e( 22 - 22) =      6.93028  eV     1   --> A              
     e( 23 - 23) =      6.93730  eV     1   --> A              
     e( 24 - 24) =      6.96587  eV     1   --> A              
     e( 25 - 25) =      7.33882  eV     1   --> A              
     e( 26 - 26) =      7.59746  eV     1   --> A              
     e( 27 - 27) =      7.88046  eV     1   --> A              
     e( 28 - 28) =      7.92497  eV     1   --> A              
     e( 29 - 29) =      9.18728  eV     1   --> A              
     e( 30 - 30) =      9.39306  eV     1   --> A              
     e( 31 - 31) =      9.69544  eV     1   --> A              
     e( 32 - 32) =      9.87181  eV     1   --> A              
     e( 33 - 33) =     10.17290  eV     1   --> A              
     e( 34 - 34) =     10.52413  eV     1   --> A              
     e( 35 - 35) =     10.83980  eV     1   --> A              
     e( 36 - 36) =     10.90868  eV     1   --> A              
     e( 37 - 37) =     11.00312  eV     1   --> A              
     e( 38 - 38) =     11.28733  eV     1   --> A              
     e( 39 - 39) =     11.53965  eV     1   --> A              
     e( 40 - 40) =     11.69255  eV     1   --> A              
     e( 41 - 41) =     11.85225  eV     1   --> A              
     e( 42 - 42) =     12.45256  eV     1   --> A              
     e( 43 - 43) =     12.49931  eV     1   --> A              
     e( 44 - 44) =     12.60465  eV     1   --> A              
     e( 45 - 45) =     13.23337  eV     1   --> A              
     e( 46 - 46) =     13.28984  eV     1   --> A              
     e( 47 - 47) =     13.51107  eV     1   --> A              
     e( 48 - 48) =     14.17372  eV     1   --> A              

 **************************************************************************

 **************************************************************************

                    xk=(   0.27500,   0.36250,   0.41250  )

     Band symmetry, C_1 (1)     point group:

     e(  1 -  1) =     -3.69104  eV     1   --> A              
     e(  2 -  2) =     -3.34290  eV     1   --> A              
     e(  3 -  3) =     -3.20507  eV     1   --> A              
     e(  4 -  4) =     -3.10566  eV     1   --> A              
     e(  5 -  5) =     -0.11363  eV     1   --> A              
     e(  6 -  6) =     -0.01332  eV     1   --> A              
     e(  7 -  7) =      0.12919  eV     1   --> A              
     e(  8 -  8) =      0.50794  eV     1   --> A              
     e(  9 -  9) =      2.30209  eV     1   --> A              
     e( 10 - 10) =      2.51517  eV     1   --> A              
     e( 11 - 11) =      2.77979  eV     1   --> A              
     e( 12 - 12) =      3.27038  eV     1   --> A              
     e( 13 - 13) =      3.30971  eV     1   --> A              
     e( 14 - 14) =      3.35165  eV     1   --> A              
     e( 15 - 15) =      3.44304  eV     1   --> A              
     e( 16 - 16) =      3.82570  eV     1   --> A              
     e( 17 - 17) =      5.94955  eV     1   --> A              
     e( 18 - 18) =      6.01621  eV     1   --> A              
     e( 19 - 19) =      6.12466  eV     1   --> A              
     e( 20 - 20) =      6.22956  eV     1   --> A              
     e( 21 - 21) =      6.89360  eV     1   --> A              
     e( 22 - 22) =      7.01950  eV     1   --> A              
     e( 23 - 23) =      7.04303  eV     1   --> A              
     e( 24 - 24) =      7.27982  eV     1   --> A              
     e( 25 - 25) =      7.34463  eV     1   --> A              
     e( 26 - 26) =      7.82962  eV     1   --> A              
     e( 27 - 27) =      7.90337  eV     1   --> A              
     e( 28 - 28) =      8.02555  eV     1   --> A              
     e( 29 - 29) =      9.03735  eV     1   --> A              
     e( 30 - 30) =      9.31687  eV     1   --> A              
     e( 31 - 31) =      9.44255  eV     1   --> A              
     e( 32 - 32) =      9.75246  eV     1   --> A              
     e( 33 - 33) =      9.97717  eV     1   --> A              
     e( 34 - 34) =     10.68886  eV     1   --> A              
     e( 35 - 35) =     10.74266  eV     1   --> A              
     e( 36 - 36) =     10.87796  eV     1   --> A              
     e( 37 - 37) =     10.96730  eV     1   --> A              
     e( 38 - 38) =     11.28554  eV     1   --> A              
     e( 39 - 39) =     11.52242  eV     1   --> A              
     e( 40 - 40) =     11.89170  eV     1   --> A              
     e( 41 - 41) =     12.01241  eV     1   --> A              
     e( 42 - 42) =     12.25834  eV     1   --> A              
     e( 43 - 43) =     12.42720  eV     1   --> A              
     e( 44 - 44) =     12.71431  eV     1   --> A              
     e( 45 - 45) =     13.04773  eV     1   --> A              
     e( 46 - 46) =     13.45418  eV     1   --> A              
     e( 47 - 47) =     13.91489  eV     1   --> A              
     e( 48 - 48) =     14.15401  eV     1   --> A              

 **************************************************************************

 **************************************************************************

                    xk=(   0.25000,   0.37500,   0.37500  )

     point group C_s (m)    
     there are  2 classes
     the character table:

       E     s    
A'     1.00  1.00
A''    1.00 -1.00

     the symmetry operations in each class and the name of the first element:

     E        1
                                                                 
     s        2
                                                                 

     Band symmetry, C_s (m)     point group:

     e(  1 -  1) =     -3.76479  eV     1   --> A'             
     e(  2 -  2) =     -3.26709  eV     1   --> A''            
     e(  3 -  3) =     -3.26510  eV     1   --> A'             
     e(  4 -  4) =     -3.07274  eV     1   --> A'             
     e(  5 -  5) =     -0.06348  eV     1   --> A'             
     e(  6 -  6) =      0.13077  eV     1   --> A'             
     e(  7 -  7) =      0.13139  eV     1   --> A''            
     e(  8 -  8) =      0.67587  eV     1   --> A'             
     e(  9 -  9) =      2.11246  eV     1   --> A'             
     e( 10 - 10) =      2.50136  eV     1   --> A''            
     e( 11 - 11) =      2.50219  eV     1   --> A'             
     e( 12 - 12) =      3.23798  eV     1   --> A''            
     e( 13 - 13) =      3.23932  eV     1   --> A'             
     e( 14 - 14) =      3.26926  eV     1   --> A''            
     e( 15 - 15) =      3.40623  eV     1   --> A'             
     e( 16 - 16) =      3.89833  eV     1   --> A''            
     e( 17 - 17) =      5.81695  eV     1   --> A'             
     e( 18 - 18) =      6.06203  eV     1   --> A'             
     e( 19 - 19) =      6.13041  eV     1   --> A'             
     e( 20 - 20) =      6.13065  eV     1   --> A''            
     e( 21 - 21) =      7.08196  eV     1   --> A''            
     e( 22 - 22) =      7.08330  eV     1   --> A'             
     e( 23 - 23) =      7.18107  eV     1   --> A''            
     e( 24 - 24) =      7.22542  eV     1   --> A'             
     e( 25 - 25) =      7.68015  eV     1   --> A'             
     e( 26 - 26) =      7.97861  eV     1   --> A''            
     e( 27 - 28) =      8.13827  eV     2   --> A'             
     e( 27 - 28) =      8.13827  eV     2   --> A''            
     e( 29 - 29) =      8.89168  eV     1   --> A''            
     e( 30 - 30) =      8.89184  eV     1   --> A'             
     e( 31 - 31) =      9.47062  eV     1   --> A'             
     e( 32 - 32) =      9.58658  eV     1   --> A'             
     e( 33 - 33) =      9.65594  eV     1   --> A''            
     e( 34 - 34) =     10.59594  eV     1   --> A'             
     e( 35 - 35) =     10.96620  eV     1   --> A'             
     e( 36 - 36) =     10.96656  eV     1   --> A''            
     e( 37 - 37) =     11.09571  eV     1   --> A'             
     e( 38 - 38) =     11.13571  eV     1   --> A''            
     e( 39 - 39) =     11.37637  eV     1   --> A'             
     e( 40 - 40) =     12.15078  eV     1   --> A''            
     e( 41 - 41) =     12.15111  eV     1   --> A'             
     e( 42 - 42) =     12.27123  eV     1   --> A'             
     e( 43 - 43) =     12.38551  eV     1   --> A'             
     e( 44 - 44) =     12.38575  eV     1   --> A''            
     e( 45 - 46) =     13.42420  eV     2   --> A'             
     e( 45 - 46) =     13.42420  eV     2   --> A''            
     e( 47 - 47) =     14.18190  eV     1   --> A''            
     e( 48 - 48) =     14.18238  eV     1   --> A'             

 **************************************************************************

 **************************************************************************

                    xk=(   0.22500,   0.38750,   0.33750  )

     point group C_1 (1)    
     there are  1 classes
     the character table:

       E    
A      1.00

     the symmetry operations in each class and the name of the first element:

     E        1
                                                                 

     Band symmetry, C_1 (1)     point group:

     e(  1 -  1) =     -3.83124  eV     1   --> A              
     e(  2 -  2) =     -3.34112  eV     1   --> A              
     e(  3 -  3) =     -3.18541  eV     1   --> A              
     e(  4 -  4) =     -3.03260  eV     1   --> A              
     e(  5 -  5) =     -0.00075  eV     1   --> A              
     e(  6 -  6) =      0.14888  eV     1   --> A              
     e(  7 -  7) =      0.30834  eV     1   --> A              
     e(  8 -  8) =      0.85733  eV     1   --> A              
     e(  9 -  9) =      1.91482  eV     1   --> A              
     e( 10 - 10) =      2.23125  eV     1   --> A              
     e( 11 - 11) =      2.50453  eV     1   --> A              
     e( 12 - 12) =      3.09937  eV     1   --> A              
     e( 13 - 13) =      3.18285  eV     1   --> A              
     e( 14 - 14) =      3.20780  eV     1   --> A              
     e( 15 - 15) =      3.36189  eV     1   --> A              
     e( 16 - 16) =      3.90335  eV     1   --> A              
     e( 17 - 17) =      5.76379  eV     1   --> A              
     e( 18 - 18) =      6.04193  eV     1   --> A              
     e( 19 - 19) =      6.15906  eV     1   --> A              
     e( 20 - 20) =      6.16611  eV     1   --> A              
     e( 21 - 21) =      7.12265  eV     1   --> A              
     e( 22 - 22) =      7.12966  eV     1   --> A              
     e( 23 - 23) =      7.27895  eV     1   --> A              
     e( 24 - 24) =      7.39625  eV     1   --> A              
     e( 25 - 25) =      7.76631  eV     1   --> A              
     e( 26 - 26) =      8.24044  eV     1   --> A              
     e( 27 - 27) =      8.30647  eV     1   --> A              
     e( 28 - 28) =      8.47134  eV     1   --> A              
     e( 29 - 29) =      8.49011  eV     1   --> A              
     e( 30 - 30) =      8.78654  eV     1   --> A              
     e( 31 - 31) =      9.10257  eV     1   --> A              
     e( 32 - 32) =      9.40391  eV     1   --> A              
     e( 33 - 33) =      9.66509  eV     1   --> A              
     e( 34 - 34) =     10.64564  eV     1   --> A              
     e( 35 - 35) =     10.84020  eV     1   --> A              
     e( 36 - 36) =     11.06403  eV     1   --> A              
     e( 37 - 37) =     11.10137  eV     1   --> A              
     e( 38 - 38) =     11.24647  eV     1   --> A              
     e( 39 - 39) =     11.30001  eV     1   --> A              
     e( 40 - 40) =     12.01635  eV     1   --> A              
     e( 41 - 41) =     12.05298  eV     1   --> A              
     e( 42 - 42) =     12.41790  eV     1   --> A              
     e( 43 - 43) =     12.45398  eV     1   --> A              
     e( 44 - 44) =     12.72693  eV     1   --> A              
     e( 45 - 45) =     13.20091  eV     1   --> A              
     e( 46 - 46) =     13.69018  eV     1   --> A              
     e( 47 - 47) =     14.27953  eV     1   --> A              
     e( 48 - 48) =     14.37046  eV     1   --> A              

 **************************************************************************

 **************************************************************************

                    xk=(   0.20000,   0.40000,   0.30000  )

     Band symmetry, C_1 (1)     point group:

     e(  1 -  1) =     -3.88920  eV     1   --> A              
     e(  2 -  2) =     -3.42435  eV     1   --> A              
     e(  3 -  3) =     -3.10281  eV     1   --> A              
     e(  4 -  4) =     -2.98661  eV     1   --> A              
     e(  5 -  5) =      0.07403  eV     1   --> A              
     e(  6 -  6) =      0.18268  eV     1   --> A              
     e(  7 -  7) =      0.51004  eV     1   --> A              
     e(  8 -  8) =      1.04885  eV     1   --> A              
     e(  9 -  9) =      1.71938  eV     1   --> A              
     e( 10 - 10) =      1.97386  eV     1   --> A              
     e( 11 - 11) =      2.52442  eV     1   --> A              
     e( 12 - 12) =      2.93849  eV     1   --> A              
     e( 13 - 13) =      3.04783  eV     1   --> A              
     e( 14 - 14) =      3.17900  eV     1   --> A              
     e( 15 - 15) =      3.31486  eV     1   --> A              
     e( 16 - 16) =      3.85126  eV     1   --> A              
     e( 17 - 17) =      5.79013  eV     1   --> A              
     e( 18 - 18) =      5.96587  eV     1   --> A              
     e( 19 - 19) =      6.21587  eV     1   --> A              
     e( 20 - 20) =      6.29791  eV     1   --> A              
     e( 21 - 21) =      7.07347  eV     1   --> A              
     e( 22 - 22) =      7.17199  eV     1   --> A              
     e( 23 - 23) =      7.45300  eV     1   --> A              
     e( 24 - 24) =      7.60750  eV     1   --> A              
     e( 25 - 25) =      7.75045  eV     1   --> A              
     e( 26 - 26) =      8.04023  eV     1   --> A              
     e( 27 - 27) =      8.44404  eV     1   --> A              
     e( 28 - 28) =      8.53787  eV     1   --> A              
     e( 29 - 29) =      8.62926  eV     1   --> A              
     e( 30 - 30) =      8.71148  eV     1   --> A              
     e( 31 - 31) =      8.99478  eV     1   --> A              
     e( 32 - 32) =      9.24870  eV     1   --> A              
     e( 33 - 33) =      9.77401  eV     1   --> A              
     e( 34 - 34) =     10.51884  eV     1   --> A              
     e( 35 - 35) =     10.76501  eV     1   --> A              
     e( 36 - 36) =     10.98540  eV     1   --> A              
     e( 37 - 37) =     11.13761  eV     1   --> A              
     e( 38 - 38) =     11.13889  eV     1   --> A              
     e( 39 - 39) =     11.51488  eV     1   --> A              
     e( 40 - 40) =     11.95495  eV     1   --> A              
     e( 41 - 41) =     11.96308  eV     1   --> A              
     e( 42 - 42) =     12.65585  eV     1   --> A              
     e( 43 - 43) =     12.72854  eV     1   --> A              
     e( 44 - 44) =     12.77701  eV     1   --> A              
     e( 45 - 45) =     13.26287  eV     1   --> A              
     e( 46 - 46) =     13.78022  eV     1   --> A              
     e( 47 - 47) =     14.21794  eV     1   --> A              
     e( 48 - 48) =     14.42538  eV     1   --> A              

 **************************************************************************

 **************************************************************************

                    xk=(   0.17500,   0.41250,   0.26250  )

     Band symmetry, C_1 (1)     point group:

     e(  1 -  1) =     -3.93770  eV     1   --> A              
     e(  2 -  2) =     -3.51087  eV     1   --> A              
     e(  3 -  3) =     -3.02028  eV     1   --> A              
     e(  4 -  4) =     -2.93619  eV     1   --> A              
     e(  5 -  5) =      0.16001  eV     1   --> A              
     e(  6 -  6) =      0.23231  eV     1   --> A              
     e(  7 -  7) =      0.72776  eV     1   --> A              
     e(  8 -  8) =      1.24603  eV     1   --> A              
     e(  9 -  9) =      1.53290  eV     1   --> A              
     e( 10 - 10) =      1.73396  eV     1   --> A              
     e( 11 - 11) =      2.56251  eV     1   --> A              
     e( 12 - 12) =      2.76217  eV     1   --> A              
     e( 13 - 13) =      2.87348  eV     1   --> A              
     e( 14 - 14) =      3.15323  eV     1   --> A              
     e( 15 - 15) =      3.26881  eV     1   --> A              
     e( 16 - 16) =      3.76088  eV     1   --> A              
     e( 17 - 17) =      5.88566  eV     1   --> A              
     e( 18 - 18) =      5.90313  eV     1   --> A              
     e( 19 - 19) =      6.30005  eV     1   --> A              
     e( 20 - 20) =      6.38389  eV     1   --> A              
     e( 21 - 21) =      7.11578  eV     1   --> A              
     e( 22 - 22) =      7.21796  eV     1   --> A              
     e( 23 - 23) =      7.41838  eV     1   --> A              
     e( 24 - 24) =      7.72077  eV     1   --> A              
     e( 25 - 25) =      7.83224  eV     1   --> A              
     e( 26 - 26) =      7.89814  eV     1   --> A              
     e( 27 - 27) =      8.16100  eV     1   --> A              
     e( 28 - 28) =      8.43011  eV     1   --> A              
     e( 29 - 29) =      8.58247  eV     1   --> A              
     e( 30 - 30) =      8.87004  eV     1   --> A              
     e( 31 - 31) =      9.35540  eV     1   --> A              
     e( 32 - 32) =      9.40851  eV     1   --> A              
     e( 33 - 33) =      9.88626  eV     1   --> A              
     e( 34 - 34) =     10.20353  eV     1   --> A              
     e( 35 - 35) =     10.67042  eV     1   --> A              
     e( 36 - 36) =     10.87202  eV     1   --> A              
     e( 37 - 37) =     11.11074  eV     1   --> A              
     e( 38 - 38) =     11.15325  eV     1   --> A              
     e( 39 - 39) =     11.73869  eV     1   --> A              
     e( 40 - 40) =     11.92354  eV     1   --> A              
     e( 41 - 41) =     12.08281  eV     1   --> A              
     e( 42 - 42) =     12.48092  eV     1   --> A              
     e( 43 - 43) =     12.95202  eV     1   --> A              
     e( 44 - 44) =     13.05463  eV     1   --> A              
     e( 45 - 45) =     13.67372  eV     1   --> A              
     e( 46 - 46) =     13.81646  eV     1   --> A              
     e( 47 - 47) =     14.14290  eV     1   --> A              
     e( 48 - 48) =     14.15280  eV     1   --> A              

 **************************************************************************

 **************************************************************************

                    xk=(   0.15000,   0.42500,   0.22500  )

     Band symmetry, C_1 (1)     point group:

     e(  1 -  1) =     -3.97611  eV     1   --> A              
     e(  2 -  2) =     -3.59676  eV     1   --> A              
     e(  3 -  3) =     -2.94030  eV     1   --> A              
     e(  4 -  4) =     -2.88330  eV     1   --> A              
     e(  5 -  5) =      0.25602  eV     1   --> A              
     e(  6 -  6) =      0.29722  eV     1   --> A              
     e(  7 -  7) =      0.95291  eV     1   --> A              
     e(  8 -  8) =      1.36034  eV     1   --> A              
     e(  9 -  9) =      1.44288  eV     1   --> A              
     e( 10 - 10) =      1.51525  eV     1   --> A              
     e( 11 - 11) =      2.57699  eV     1   --> A              
     e( 12 - 12) =      2.61974  eV     1   --> A              
     e( 13 - 13) =      2.67425  eV     1   --> A              
     e( 14 - 14) =      3.13140  eV     1   --> A              
     e( 15 - 15) =      3.22680  eV     1   --> A              
     e( 16 - 16) =      3.65033  eV     1   --> A              
     e( 17 - 17) =      5.85327  eV     1   --> A              
     e( 18 - 18) =      6.03557  eV     1   --> A              
     e( 19 - 19) =      6.36520  eV     1   --> A              
     e( 20 - 20) =      6.40772  eV     1   --> A              
     e( 21 - 21) =      7.10533  eV     1   --> A              
     e( 22 - 22) =      7.27299  eV     1   --> A              
     e( 23 - 23) =      7.29672  eV     1   --> A              
     e( 24 - 24) =      7.69176  eV     1   --> A              
     e( 25 - 25) =      7.71416  eV     1   --> A              
     e( 26 - 26) =      8.05643  eV     1   --> A              
     e( 27 - 27) =      8.06368  eV     1   --> A              
     e( 28 - 28) =      8.31874  eV     1   --> A              
     e( 29 - 29) =      8.73317  eV     1   --> A              
     e( 30 - 30) =      8.73471  eV     1   --> A              
     e( 31 - 31) =      9.62879  eV     1   --> A              
     e( 32 - 32) =      9.80626  eV     1   --> A              
     e( 33 - 33) =      9.98521  eV     1   --> A              
     e( 34 - 34) =     10.04220  eV     1   --> A              
     e( 35 - 35) =     10.34748  eV     1   --> A              
     e( 36 - 36) =     10.83790  eV     1   --> A              
     e( 37 - 37) =     11.09081  eV     1   --> A              
     e( 38 - 38) =     11.28820  eV     1   --> A              
     e( 39 - 39) =     11.90446  eV     1   --> A              
     e( 40 - 40) =     11.96070  eV     1   --> A              
     e( 41 - 41) =     12.23634  eV     1   --> A              
     e( 42 - 42) =     12.24264  eV     1   --> A              
     e( 43 - 43) =     13.26163  eV     1   --> A              
     e( 44 - 44) =     13.39503  eV     1   --> A              
     e( 45 - 45) =     13.88110  eV     1   --> A              
     e( 46 - 46) =     13.90416  eV     1   --> A              
     e( 47 - 47) =     14.06983  eV     1   --> A              
     e( 48 - 48) =     14.09273  eV     1   --> A              

 **************************************************************************

 **************************************************************************

                    xk=(   0.12500,   0.43750,   0.18750  )

     Band symmetry, C_1 (1)     point group:

     e(  1 -  1) =     -4.00392  eV     1   --> A              
     e(  2 -  2) =     -3.67905  eV     1   --> A              
     e(  3 -  3) =     -2.86567  eV     1   --> A              
     e(  4 -  4) =     -2.83028  eV     1   --> A              
     e(  5 -  5) =      0.36019  eV     1   --> A              
     e(  6 -  6) =      0.37624  eV     1   --> A              
     e(  7 -  7) =      1.17661  eV     1   --> A              
     e(  8 -  8) =      1.20591  eV     1   --> A              
     e(  9 -  9) =      1.32112  eV     1   --> A              
     e( 10 - 10) =      1.63094  eV     1   --> A              
     e( 11 - 11) =      2.38953  eV     1   --> A              
     e( 12 - 12) =      2.46449  eV     1   --> A              
     e( 13 - 13) =      2.69636  eV     1   --> A              
     e( 14 - 14) =      3.11434  eV     1   --> A              
     e( 15 - 15) =      3.19180  eV     1   --> A              
     e( 16 - 16) =      3.53381  eV     1   --> A              
     e( 17 - 17) =      5.81380  eV     1   --> A              
     e( 18 - 18) =      6.22508  eV     1   --> A              
     e( 19 - 19) =      6.27032  eV     1   --> A              
     e( 20 - 20) =      6.53321  eV     1   --> A              
     e( 21 - 21) =      6.76889  eV     1   --> A              
     e( 22 - 22) =      7.30223  eV     1   --> A              
     e( 23 - 23) =      7.34102  eV     1   --> A              
     e( 24 - 24) =      7.57671  eV     1   --> A              
     e( 25 - 25) =      7.66919  eV     1   --> A              
     e( 26 - 26) =      8.21825  eV     1   --> A              
     e( 27 - 27) =      8.27375  eV     1   --> A              
     e( 28 - 28) =      8.29355  eV     1   --> A              
     e( 29 - 29) =      8.56755  eV     1   --> A              
     e( 30 - 30) =      8.88259  eV     1   --> A              
     e( 31 - 31) =      9.44272  eV     1   --> A              
     e( 32 - 32) =      9.76749  eV     1   --> A              
     e( 33 - 33) =     10.05160  eV     1   --> A              
     e( 34 - 34) =     10.40320  eV     1   --> A              
     e( 35 - 35) =     10.47047  eV     1   --> A              
     e( 36 - 36) =     10.77387  eV     1   --> A              
     e( 37 - 37) =     10.96923  eV     1   --> A              
     e( 38 - 38) =     11.56293  eV     1   --> A              
     e( 39 - 39) =     11.69103  eV     1   --> A              
     e( 40 - 40) =     12.17311  eV     1   --> A              
     e( 41 - 41) =     12.27697  eV     1   --> A              
     e( 42 - 42) =     12.38261  eV     1   --> A              
     e( 43 - 43) =     13.46747  eV     1   --> A              
     e( 44 - 44) =     13.63628  eV     1   --> A              
     e( 45 - 45) =     13.68159  eV     1   --> A              
     e( 46 - 46) =     14.06800  eV     1   --> A              
     e( 47 - 47) =     14.08524  eV     1   --> A              
     e( 48 - 48) =     14.17440  eV     1   --> A              

 **************************************************************************

 **************************************************************************

                    xk=(   0.10000,   0.45000,   0.15000  )

     Band symmetry, C_1 (1)     point group:

     e(  1 -  1) =     -4.02056  eV     1   --> A              
     e(  2 -  2) =     -3.75537  eV     1   --> A              
     e(  3 -  3) =     -2.79931  eV     1   --> A              
     e(  4 -  4) =     -2.77997  eV     1   --> A              
     e(  5 -  5) =      0.46699  eV     1   --> A              
     e(  6 -  6) =      0.46952  eV     1   --> A              
     e(  7 -  7) =      1.07336  eV     1   --> A              
     e(  8 -  8) =      1.15487  eV     1   --> A              
     e(  9 -  9) =      1.38978  eV     1   --> A              
     e( 10 - 10) =      1.79818  eV     1   --> A              
     e( 11 - 11) =      2.20658  eV     1   --> A              
     e( 12 - 12) =      2.25696  eV     1   --> A              
     e( 13 - 13) =      2.79061  eV     1   --> A              
     e( 14 - 14) =      3.10296  eV     1   --> A              
     e( 15 - 15) =      3.16699  eV     1   --> A              
     e( 16 - 16) =      3.42207  eV     1   --> A              
     e( 17 - 17) =      5.77783  eV     1   --> A              
     e( 18 - 18) =      6.13632  eV     1   --> A              
     e( 19 - 19) =      6.44000  eV     1   --> A              
     e( 20 - 20) =      6.47266  eV     1   --> A              
     e( 21 - 21) =      6.66917  eV     1   --> A              
     e( 22 - 22) =      6.94025  eV     1   --> A              
     e( 23 - 23) =      7.42552  eV     1   --> A              
     e( 24 - 24) =      7.65757  eV     1   --> A              
     e( 25 - 25) =      7.90586  eV     1   --> A              
     e( 26 - 26) =      8.13275  eV     1   --> A              
     e( 27 - 27) =      8.40669  eV     1   --> A              
     e( 28 - 28) =      8.50039  eV     1   --> A              
     e( 29 - 29) =      8.51586  eV     1   --> A              
     e( 30 - 30) =      9.01957  eV     1   --> A              
     e( 31 - 31) =      9.15247  eV     1   --> A              
     e( 32 - 32) =      9.41582  eV     1   --> A              
     e( 33 - 33) =     10.05939  eV     1   --> A              
     e( 34 - 34) =     10.74657  eV     1   --> A              
     e( 35 - 35) =     10.79762  eV     1   --> A              
     e( 36 - 36) =     10.89571  eV     1   --> A              
     e( 37 - 37) =     10.92525  eV     1   --> A              
     e( 38 - 38) =     11.41552  eV     1   --> A              
     e( 39 - 39) =     11.88066  eV     1   --> A              
     e( 40 - 40) =     12.36852  eV     1   --> A              
     e( 41 - 41) =     12.44901  eV     1   --> A              
     e( 42 - 42) =     12.51422  eV     1   --> A              
     e( 43 - 43) =     13.47901  eV     1   --> A              
     e( 44 - 44) =     13.51311  eV     1   --> A              
     e( 45 - 45) =     13.64982  eV     1   --> A              
     e( 46 - 46) =     13.83765  eV     1   --> A              
     e( 47 - 47) =     13.96461  eV     1   --> A              
     e( 48 - 48) =     14.46766  eV     1   --> A              

 **************************************************************************

 **************************************************************************

                    xk=(   0.07500,   0.46250,   0.11250  )

     Band symmetry, C_1 (1)     point group:

     e(  1 -  1) =     -4.02593  eV     1   --> A              
     e(  2 -  2) =     -3.82415  eV     1   --> A              
     e(  3 -  3) =     -2.74427  eV     1   --> A              
     e(  4 -  4) =     -2.73544  eV     1   --> A              
     e(  5 -  5) =      0.56536  eV     1   --> A              
     e(  6 -  6) =      0.57838  eV     1   --> A              
     e(  7 -  7) =      0.96630  eV     1   --> A              
     e(  8 -  8) =      1.01932  eV     1   --> A              
     e(  9 -  9) =      1.58375  eV     1   --> A              
     e( 10 - 10) =      1.92884  eV     1   --> A              
     e( 11 - 11) =      2.03612  eV     1   --> A              
     e( 12 - 12) =      2.06395  eV     1   --> A              
     e( 13 - 13) =      2.89656  eV     1   --> A              
     e( 14 - 14) =      3.09831  eV     1   --> A              
     e( 15 - 15) =      3.15523  eV     1   --> A              
     e( 16 - 16) =      3.32320  eV     1   --> A              
     e( 17 - 17) =      5.73010  eV     1   --> A              
     e( 18 - 18) =      5.97818  eV     1   --> A              
     e( 19 - 19) =      6.25216  eV     1   --> A              
     e( 20 - 20) =      6.64446  eV     1   --> A              
     e( 21 - 21) =      6.66358  eV     1   --> A              
     e( 22 - 22) =      6.80577  eV     1   --> A              
     e( 23 - 23) =      7.52987  eV     1   --> A              
     e( 24 - 24) =      7.66364  eV     1   --> A              
     e( 25 - 25) =      8.06513  eV     1   --> A              
     e( 26 - 26) =      8.25875  eV     1   --> A              
     e( 27 - 27) =      8.26098  eV     1   --> A              
     e( 28 - 28) =      8.72305  eV     1   --> A              
     e( 29 - 29) =      8.72447  eV     1   --> A              
     e( 30 - 30) =      8.86706  eV     1   --> A              
     e( 31 - 31) =      9.04989  eV     1   --> A              
     e( 32 - 32) =      9.13015  eV     1   --> A              
     e( 33 - 33) =      9.99633  eV     1   --> A              
     e( 34 - 34) =     10.56270  eV     1   --> A              
     e( 35 - 35) =     10.76985  eV     1   --> A              
     e( 36 - 36) =     11.19463  eV     1   --> A              
     e( 37 - 37) =     11.40342  eV     1   --> A              
     e( 38 - 38) =     11.41515  eV     1   --> A              
     e( 39 - 39) =     12.22509  eV     1   --> A              
     e( 40 - 40) =     12.53838  eV     1   --> A              
     e( 41 - 41) =     12.62800  eV     1   --> A              
     e( 42 - 42) =     12.65883  eV     1   --> A              
     e( 43 - 43) =     13.29744  eV     1   --> A              
     e( 44 - 44) =     13.46835  eV     1   --> A              
     e( 45 - 45) =     13.55180  eV     1   --> A              
     e( 46 - 46) =     13.68568  eV     1   --> A              
     e( 47 - 47) =     13.68758  eV     1   --> A              
     e( 48 - 48) =     14.30683  eV     1   --> A              

 **************************************************************************

 **************************************************************************

                    xk=(   0.05000,   0.47500,   0.07500  )

     Band symmetry, C_1 (1)     point group:

     e(  1 -  1) =     -4.01982  eV     1   --> A              
     e(  2 -  2) =     -3.88402  eV     1   --> A              
     e(  3 -  3) =     -2.70332  eV     1   --> A              
     e(  4 -  4) =     -2.69986  eV     1   --> A              
     e(  5 -  5) =      0.66308  eV     1   --> A              
     e(  6 -  6) =      0.67766  eV     1   --> A              
     e(  7 -  7) =      0.88773  eV     1   --> A              
     e(  8 -  8) =      0.91666  eV     1   --> A              
     e(  9 -  9) =      1.75101  eV     1   --> A              
     e( 10 - 10) =      1.88932  eV     1   --> A              
     e( 11 - 11) =      1.90005  eV     1   --> A              
     e( 12 - 12) =      2.00670  eV     1   --> A              
     e( 13 - 13) =      3.00187  eV     1   --> A              
     e( 14 - 14) =      3.10173  eV     1   --> A              
     e( 15 - 15) =      3.15566  eV     1   --> A              
     e( 16 - 16) =      3.24262  eV     1   --> A              
     e( 17 - 17) =      5.65858  eV     1   --> A              
     e( 18 - 18) =      5.81182  eV     1   --> A              
     e( 19 - 19) =      6.13924  eV     1   --> A              
     e( 20 - 20) =      6.42427  eV     1   --> A              
     e( 21 - 21) =      6.86904  eV     1   --> A              
     e( 22 - 22) =      6.92970  eV     1   --> A              
     e( 23 - 23) =      7.65607  eV     1   --> A              
     e( 24 - 24) =      7.70197  eV     1   --> A              
     e( 25 - 25) =      8.01850  eV     1   --> A              
     e( 26 - 26) =      8.13564  eV     1   --> A              
     e( 27 - 27) =      8.60339  eV     1   --> A              
     e( 28 - 28) =      8.61723  eV     1   --> A              
     e( 29 - 29) =      8.70457  eV     1   --> A              
     e( 30 - 30) =      8.90661  eV     1   --> A              
     e( 31 - 31) =      8.93595  eV     1   --> A              
     e( 32 - 32) =      9.19822  eV     1   --> A              
     e( 33 - 33) =      9.88283  eV     1   --> A              
     e( 34 - 34) =     10.26776  eV     1   --> A              
     e( 35 - 35) =     10.82240  eV     1   --> A              
     e( 36 - 36) =     11.05426  eV     1   --> A              
     e( 37 - 37) =     11.90487  eV     1   --> A              
     e( 38 - 38) =     11.90673  eV     1   --> A              
     e( 39 - 39) =     12.58109  eV     1   --> A              
     e( 40 - 40) =     12.67250  eV     1   --> A              
     e( 41 - 41) =     12.71885  eV     1   --> A              
     e( 42 - 42) =     12.87698  eV     1   --> A              
     e( 43 - 43) =     13.15953  eV     1   --> A              
     e( 44 - 44) =     13.34975  eV     1   --> A              
     e( 45 - 45) =     13.39055  eV     1   --> A              
     e( 46 - 46) =     13.43732  eV     1   --> A              
     e( 47 - 47) =     13.60567  eV     1   --> A              
     e( 48 - 48) =     14.03349  eV     1   --> A              

 **************************************************************************

 **************************************************************************

                    xk=(   0.02500,   0.48750,   0.03750  )

     Band symmetry, C_1 (1)     point group:

     e(  1 -  1) =     -4.00255  eV     1   --> A              
     e(  2 -  2) =     -3.93422  eV     1   --> A              
     e(  3 -  3) =     -2.67858  eV     1   --> A              
     e(  4 -  4) =     -2.67630  eV     1   --> A              
     e(  5 -  5) =      0.74650  eV     1   --> A              
     e(  6 -  6) =      0.75357  eV     1   --> A              
     e(  7 -  7) =      0.83739  eV     1   --> A              
     e(  8 -  8) =      0.84661  eV     1   --> A              
     e(  9 -  9) =      1.78374  eV     1   --> A              
     e( 10 - 10) =      1.78554  eV     1   --> A              
     e( 11 - 11) =      1.88506  eV     1   --> A              
     e( 12 - 12) =      2.02247  eV     1   --> A              
     e( 13 - 13) =      3.08854  eV     1   --> A              
     e( 14 - 14) =      3.11505  eV     1   --> A              
     e( 15 - 15) =      3.15769  eV     1   --> A              
     e( 16 - 16) =      3.18231  eV     1   --> A              
     e( 17 - 17) =      5.59509  eV     1   --> A              
     e( 18 - 18) =      5.67051  eV     1   --> A              
     e( 19 - 19) =      6.12417  eV     1   --> A              
     e( 20 - 20) =      6.27193  eV     1   --> A              
     e( 21 - 21) =      7.01308  eV     1   --> A              
     e( 22 - 22) =      7.02294  eV     1   --> A              
     e( 23 - 23) =      7.79663  eV     1   --> A              
     e( 24 - 24) =      7.79897  eV     1   --> A              
     e( 25 - 25) =      7.99124  eV     1   --> A              
     e( 26 - 26) =      8.03208  eV     1   --> A              
     e( 27 - 27) =      8.38092  eV     1   --> A              
     e( 28 - 28) =      8.40945  eV     1   --> A              
     e( 29 - 29) =      8.95203  eV     1   --> A              
     e( 30 - 30) =      9.05648  eV     1   --> A              
     e( 31 - 31) =      9.11179  eV     1   --> A              
     e( 32 - 32) =      9.21023  eV     1   --> A              
     e( 33 - 33) =      9.76178  eV     1   --> A              
     e( 34 - 34) =      9.95771  eV     1   --> A              
     e( 35 - 35) =     10.87710  eV     1   --> A              
     e( 36 - 36) =     10.97422  eV     1   --> A              
     e( 37 - 37) =     12.37840  eV     1   --> A              
     e( 38 - 38) =     12.38225  eV     1   --> A              
     e( 39 - 39) =     12.76031  eV     1   --> A              
     e( 40 - 40) =     12.77822  eV     1   --> A              
     e( 41 - 41) =     12.91605  eV     1   --> A              
     e( 42 - 42) =     13.06644  eV     1   --> A              
     e( 43 - 43) =     13.09512  eV     1   --> A              
     e( 44 - 44) =     13.13404  eV     1   --> A              
     e( 45 - 45) =     13.14756  eV     1   --> A              
     e( 46 - 46) =     13.24158  eV     1   --> A              
     e( 47 - 47) =     13.57780  eV     1   --> A              
     e( 48 - 48) =     13.79702  eV     1   --> A              

 **************************************************************************

 **************************************************************************

                    xk=(   0.00000,   0.50000,   0.00000  )

     point group D_4h(4/mmm)
     there are 10 classes
     the character table:

       E     2C4   C2    2C2'  2C2'' i     2S4   s_h   2s_v  2s_d 
A_1g   1.00  1.00  1.00  1.00  1.00  1.00  1.00  1.00  1.00  1.00
A_2g   1.00  1.00  1.00 -1.00 -1.00  1.00  1.00  1.00 -1.00 -1.00
B_1g   1.00 -1.00  1.00  1.00 -1.00  1.00 -1.00  1.00  1.00 -1.00
B_2g   1.00 -1.00  1.00 -1.00  1.00  1.00 -1.00  1.00 -1.00  1.00
E_g    2.00  0.00 -2.00  0.00  0.00  2.00  0.00 -2.00  0.00  0.00
A_1u   1.00  1.00  1.00  1.00  1.00 -1.00 -1.00 -1.00 -1.00 -1.00
A_2u   1.00  1.00  1.00 -1.00 -1.00 -1.00 -1.00 -1.00  1.00  1.00
B_1u   1.00 -1.00  1.00  1.00 -1.00 -1.00  1.00 -1.00 -1.00  1.00
B_2u   1.00 -1.00  1.00 -1.00  1.00 -1.00  1.00 -1.00  1.00 -1.00
E_u    2.00  0.00 -2.00  0.00  0.00 -2.00  0.00  2.00  0.00  0.00

     the symmetry operations in each class and the name of the first element:

     E        1
                                                                 
     2C4      7    8
                                                                 
     C2       3
                                                                 
     2C2'     2    4
                                                                 
     2C2''    5    6
                                                                 
     i        9
                                                                 
     2S4     15   16
                                                                 
     s_h     11
                                                                 
     2s_v    10   12
                                                                 
     2s_d    13   14
                                                                 

     Band symmetry, D_4h(4/mmm) point group:

     e(  1 -  1) =     -3.97471  eV     1   --> A_2u X_4' M_4' 
     e(  2 -  2) =     -3.97291  eV     1   --> A_1g X_1  M_1  
     e(  3 -  3) =     -2.67031  eV     1   --> B_2u X_3' M_3' 
     e(  4 -  4) =     -2.66805  eV     1   --> A_1g X_1  M_1  
     e(  5 -  6) =      0.80048  eV     2   --> E_g  X_5  M_5  
     e(  7 -  8) =      0.80190  eV     2   --> E_u  X_5' M_5' 
     e(  9 -  9) =      1.74332  eV     1   --> B_1g X_2  M_2  
     e( 10 - 10) =      1.74409  eV     1   --> A_2u X_4' M_4' 
     e( 11 - 11) =      1.97839  eV     1   --> A_1g X_1  M_1  
     e( 12 - 12) =      1.97904  eV     1   --> A_2u X_4' M_4' 
     e( 13 - 14) =      3.14000  eV     2   --> E_g  X_5  M_5  
     e( 15 - 16) =      3.14167  eV     2   --> E_u  X_5' M_5' 
     e( 17 - 17) =      5.59176  eV     1   --> B_1u X_2' M_2' 
     e( 18 - 18) =      5.59306  eV     1   --> B_2g X_3  M_3  
     e( 19 - 19) =      6.17290  eV     1   --> A_2u X_4' M_4' 
     e( 20 - 20) =      6.17375  eV     1   --> A_1g X_1  M_1  
     e( 21 - 21) =      7.06079  eV     1   --> B_1g X_2  M_2  
     e( 22 - 22) =      7.06091  eV     1   --> A_2u X_4' M_4' 
     e( 23 - 24) =      7.93164  eV     2   --> E_u  X_5' M_5' 
     e( 25 - 26) =      7.93199  eV     2   --> E_g  X_5  M_5  
     e( 27 - 27) =      8.26894  eV     1   --> B_2u X_3' M_3' 
     e( 28 - 28) =      8.26935  eV     1   --> A_1g X_1  M_1  
     e( 29 - 30) =      9.16118  eV     2   --> E_u  X_5' M_5' 
     e( 31 - 32) =      9.16135  eV     2   --> E_g  X_5  M_5  
     e( 33 - 33) =      9.74229  eV     1   --> A_1g X_1  M_1  
     e( 34 - 34) =      9.74242  eV     1   --> A_2u X_4' M_4' 
     e( 35 - 35) =     10.92338  eV     1   --> B_2u X_3' M_3' 
     e( 36 - 36) =     10.92443  eV     1   --> B_1g X_2  M_2  
     e( 37 - 38) =     12.79422  eV     2   --> E_g  X_5  M_5  
     e( 39 - 40) =     12.79580  eV     2   --> E_u  X_5' M_5' 
     e( 41 - 41) =     12.81287  eV     1   --> A_1u X_1' M_1' 
     e( 42 - 42) =     12.81463  eV     1   --> B_2g X_3  M_3  
     e( 47 - 47) =     13.61873  eV     1   --> B_2g X_3  M_3  
     e( 48 - 48) =     13.61927  eV     1   --> B_1u X_2' M_2' 

 **************************************************************************

 **************************************************************************

                    xk=(   0.00000,   0.47500,   0.00000  )

     point group C_4v (4mm) 
     there are  5 classes
     the character table:

       E     2C4   C2    2s_v  2s_d 
A_1    1.00  1.00  1.00  1.00  1.00
A_2    1.00  1.00  1.00 -1.00 -1.00
B_1    1.00 -1.00  1.00  1.00 -1.00
B_2    1.00 -1.00  1.00 -1.00  1.00
E      2.00  0.00 -2.00  0.00  0.00

     the symmetry operations in each class and the name of the first element:

     E        1
                                                                 
     2C4      3    4
                                                                 
     C2       2
                                                                 
     2s_v     5    6
                                                                 
     2s_d     7    8
                                                                 

     Band symmetry, C_4v (4mm)  point group:

     e(  1 -  1) =     -4.04100  eV     1   --> A_1  G_1 D_1   
     e(  2 -  2) =     -3.90420  eV     1   --> A_1  G_1 D_1   
     e(  3 -  3) =     -2.67061  eV     1   --> B_1  G_3 D_2   
     e(  4 -  4) =     -2.66835  eV     1   --> A_1  G_1 D_1   
     e(  5 -  6) =      0.72236  eV     2   --> E    G_5 D_5   
     e(  7 -  8) =      0.88350  eV     2   --> E    G_5 D_5   
     e(  9 -  9) =      1.74649  eV     1   --> B_1  G_3 D_2   
     e( 10 - 10) =      1.74726  eV     1   --> A_1  G_1 D_1   
     e( 11 - 11) =      1.83824  eV     1   --> A_1  G_1 D_1   
     e( 12 - 12) =      2.12006  eV     1   --> A_1  G_1 D_1   
     e( 13 - 14) =      3.07607  eV     2   --> E    G_5 D_5   
     e( 15 - 16) =      3.20820  eV     2   --> E    G_5 D_5   
     e( 17 - 17) =      5.51806  eV     1   --> B_2  G_4 D_2'  
     e( 18 - 18) =      5.66943  eV     1   --> B_2  G_4 D_2'  
     e( 19 - 19) =      6.02667  eV     1   --> A_1  G_1 D_1   
     e( 20 - 20) =      6.32418  eV     1   --> A_1  G_1 D_1   
     e( 21 - 21) =      7.02070  eV     1   --> B_1  G_3 D_2   
     e( 22 - 22) =      7.02082  eV     1   --> A_1  G_1 D_1   
     e( 23 - 24) =      7.70544  eV     2   --> E    G_5 D_5   
     e( 25 - 26) =      8.16179  eV     2   --> E    G_5 D_5   
     e( 27 - 27) =      8.31362  eV     1   --> B_1  G_3 D_2   
     e( 28 - 28) =      8.31403  eV     1   --> A_1  G_1 D_1   
     e( 29 - 30) =      9.00504  eV     2   --> E    G_5 D_5   
     e( 31 - 32) =      9.31857  eV     2   --> E    G_5 D_5   
     e( 33 - 33) =      9.54454  eV     1   --> A_1  G_1 D_1   
     e( 34 - 34) =      9.94416  eV     1   --> A_1  G_1 D_1   
     e( 35 - 35) =     10.83606  eV     1   --> B_1  G_3 D_2   
     e( 36 - 36) =     11.01627  eV     1   --> B_1  G_3 D_2   
     e( 37 - 38) =     12.75312  eV     2   --> E    G_5 D_5   
     e( 39 - 39) =     12.81247  eV     1   --> A_2  G_2 D_1'  
     e( 40 - 40) =     12.81424  eV     1   --> B_2  G_4 D_2'  
     e( 41 - 42) =     12.83699  eV     2   --> E    G_5 D_5   
     e( 43 - 44) =     12.97647  eV     2   --> E    G_5 D_5   
     e( 45 - 45) =     13.27542  eV     1   -->   ?
     e( 46 - 46) =     13.27567  eV     1   -->   ?
     e( 47 - 47) =     13.39829  eV     1   --> B_2  G_4 D_2'  
     e( 48 - 48) =     13.84405  eV     1   -->   ?

 **************************************************************************

 **************************************************************************

                    xk=(   0.00000,   0.45000,   0.00000  )

     Band symmetry, C_4v (4mm)  point group:

     e(  1 -  1) =     -4.10544  eV     1   --> A_1  G_1 D_1   
     e(  2 -  2) =     -3.83221  eV     1   --> A_1  G_1 D_1   
     e(  3 -  3) =     -2.67152  eV     1   --> B_1  G_3 D_2   
     e(  4 -  4) =     -2.66926  eV     1   --> A_1  G_1 D_1   
     e(  5 -  6) =      0.64706  eV     2   --> E    G_5 D_5   
     e(  7 -  8) =      0.96906  eV     2   --> E    G_5 D_5   
     e(  9 -  9) =      1.69878  eV     1   --> A_1  G_1 D_1   
     e( 10 - 10) =      1.75599  eV     1   --> B_1  G_3 D_2   
     e( 11 - 11) =      1.75679  eV     1   --> A_1  G_1 D_1   
     e( 12 - 12) =      2.26211  eV     1   --> A_1  G_1 D_1   
     e( 13 - 14) =      3.01404  eV     2   --> E    G_5 D_5   
     e( 15 - 16) =      3.27798  eV     2   --> E    G_5 D_5   
     e( 17 - 17) =      5.44658  eV     1   --> B_2  G_4 D_2'  
     e( 18 - 18) =      5.74886  eV     1   --> B_2  G_4 D_2'  
     e( 19 - 19) =      5.88521  eV     1   --> A_1  G_1 D_1   
     e( 20 - 20) =      6.47780  eV     1   --> A_1  G_1 D_1   
     e( 21 - 21) =      6.91464  eV     1   --> B_1  G_3 D_2   
     e( 22 - 22) =      6.91477  eV     1   --> A_1  G_1 D_1   
[...]
     e(  9 -  9) =      2.10290  eV     1   --> A              
     e( 10 - 10) =      2.33714  eV     1   --> A              
     e( 11 - 11) =      2.67372  eV     1   --> A              
     e( 12 - 12) =      3.17274  eV     1   --> A              
     e( 13 - 13) =      3.23353  eV     1   --> A              
     e( 14 - 14) =      3.29092  eV     1   --> A              
     e( 15 - 15) =      3.39972  eV     1   --> A              
     e( 16 - 16) =      3.84416  eV     1   --> A              
     e( 17 - 17) =      5.88003  eV     1   --> A              
     e( 18 - 18) =      6.07939  eV     1   --> A              
     e( 19 - 19) =      6.10267  eV     1   --> A              
     e( 20 - 20) =      6.21549  eV     1   --> A              
     e( 21 - 21) =      6.98688  eV     1   --> A              
     e( 22 - 22) =      7.05569  eV     1   --> A              
     e( 23 - 23) =      7.16020  eV     1   --> A              
     e( 24 - 24) =      7.37100  eV     1   --> A              
     e( 25 - 25) =      7.50244  eV     1   --> A              
     e( 26 - 26) =      8.01826  eV     1   --> A              
     e( 27 - 27) =      8.14897  eV     1   --> A              
     e( 28 - 28) =      8.29076  eV     1   --> A              
     e( 29 - 29) =      8.71525  eV     1   --> A              
     e( 30 - 30) =      9.07563  eV     1   --> A              
     e( 31 - 31) =      9.22560  eV     1   --> A              
     e( 32 - 32) =      9.58253  eV     1   --> A              
     e( 33 - 33) =      9.88654  eV     1   --> A              
     e( 34 - 34) =     10.64879  eV     1   --> A              
     e( 35 - 35) =     10.86472  eV     1   --> A              
     e( 36 - 36) =     10.89013  eV     1   --> A              
     e( 37 - 37) =     10.99076  eV     1   --> A              
     e( 38 - 38) =     11.33416  eV     1   --> A              
     e( 39 - 39) =     11.38580  eV     1   --> A              
     e( 40 - 40) =     11.87347  eV     1   --> A              
     e( 41 - 41) =     11.97818  eV     1   --> A              
     e( 42 - 42) =     12.34465  eV     1   --> A              
     e( 43 - 43) =     12.45172  eV     1   --> A              
     e( 44 - 44) =     12.77846  eV     1   --> A              
     e( 45 - 45) =     13.07466  eV     1   --> A              
     e( 46 - 46) =     13.57150  eV     1   --> A              
     e( 47 - 47) =     14.04258  eV     1   --> A              
     e( 48 - 48) =     14.29633  eV     1   --> A              

 **************************************************************************

 **************************************************************************

                    xk=(   0.75000,   0.40000,   0.35000  )

     Band symmetry, C_1 (1)     point group:

     e(  1 -  1) =     -3.76143  eV     1   --> A              
     e(  2 -  2) =     -3.34314  eV     1   --> A              
     e(  3 -  3) =     -3.19572  eV     1   --> A              
     e(  4 -  4) =     -3.07026  eV     1   --> A              
     e(  5 -  5) =     -0.05966  eV     1   --> A              
     e(  6 -  6) =      0.06543  eV     1   --> A              
     e(  7 -  7) =      0.21728  eV     1   --> A              
     e(  8 -  8) =      0.67832  eV     1   --> A              
     e(  9 -  9) =      2.10640  eV     1   --> A              
     e( 10 - 10) =      2.36937  eV     1   --> A              
     e( 11 - 11) =      2.63888  eV     1   --> A              
     e( 12 - 12) =      3.18688  eV     1   --> A              
     e( 13 - 13) =      3.24607  eV     1   --> A              
     e( 14 - 14) =      3.28166  eV     1   --> A              
     e( 15 - 15) =      3.40210  eV     1   --> A              
     e( 16 - 16) =      3.86324  eV     1   --> A              
     e( 17 - 17) =      5.85760  eV     1   --> A              
     e( 18 - 18) =      6.08669  eV     1   --> A              
     e( 19 - 19) =      6.08894  eV     1   --> A              
     e( 20 - 20) =      6.19598  eV     1   --> A              
     e( 21 - 21) =      7.00694  eV     1   --> A              
     e( 22 - 22) =      7.08140  eV     1   --> A              
     e( 23 - 23) =      7.14670  eV     1   --> A              
     e( 24 - 24) =      7.33752  eV     1   --> A              
     e( 25 - 25) =      7.55313  eV     1   --> A              
     e( 26 - 26) =      8.03927  eV     1   --> A              
     e( 27 - 27) =      8.10092  eV     1   --> A              
     e( 28 - 28) =      8.25806  eV     1   --> A              
     e( 29 - 29) =      8.74975  eV     1   --> A              
     e( 30 - 30) =      9.03855  eV     1   --> A              
     e( 31 - 31) =      9.28807  eV     1   --> A              
     e( 32 - 32) =      9.58406  eV     1   --> A              
     e( 33 - 33) =      9.82923  eV     1   --> A              
     e( 34 - 34) =     10.62990  eV     1   --> A              
     e( 35 - 35) =     10.90609  eV     1   --> A              
     e( 36 - 36) =     10.91624  eV     1   --> A              
     e( 37 - 37) =     10.99576  eV     1   --> A              
     e( 38 - 38) =     11.29389  eV     1   --> A              
     e( 39 - 39) =     11.38234  eV     1   --> A              
     e( 40 - 40) =     11.94347  eV     1   --> A              
     e( 41 - 41) =     12.01952  eV     1   --> A              
     e( 42 - 42) =     12.31867  eV     1   --> A              
     e( 43 - 43) =     12.41158  eV     1   --> A              
     e( 44 - 44) =     12.72004  eV     1   --> A              
     e( 45 - 45) =     13.12346  eV     1   --> A              
     e( 46 - 46) =     13.57108  eV     1   --> A              
     e( 47 - 47) =     14.09750  eV     1   --> A              
     e( 48 - 48) =     14.26156  eV     1   --> A              

 **************************************************************************

 **************************************************************************

                    xk=(   0.75000,   0.39375,   0.35625  )

     Band symmetry, C_1 (1)     point group:

     e(  1 -  1) =     -3.76289  eV     1   --> A              
     e(  2 -  2) =     -3.32336  eV     1   --> A              
     e(  3 -  3) =     -3.21259  eV     1   --> A              
     e(  4 -  4) =     -3.07135  eV     1   --> A              
     e(  5 -  5) =     -0.06133  eV     1   --> A              
     e(  6 -  6) =      0.07983  eV     1   --> A              
     e(  7 -  7) =      0.19390  eV     1   --> A              
     e(  8 -  8) =      0.67725  eV     1   --> A              
     e(  9 -  9) =      2.10907  eV     1   --> A              
     e( 10 - 10) =      2.40196  eV     1   --> A              
     e( 11 - 11) =      2.60423  eV     1   --> A              
     e( 12 - 12) =      3.20056  eV     1   --> A              
     e( 13 - 13) =      3.25607  eV     1   --> A              
     e( 14 - 14) =      3.27180  eV     1   --> A              
     e( 15 - 15) =      3.40392  eV     1   --> A              
     e( 16 - 16) =      3.87841  eV     1   --> A              
     e( 17 - 17) =      5.83994  eV     1   --> A              
     e( 18 - 18) =      6.07748  eV     1   --> A              
     e( 19 - 19) =      6.09559  eV     1   --> A              
     e( 20 - 20) =      6.17769  eV     1   --> A              
     e( 21 - 21) =      7.02664  eV     1   --> A              
     e( 22 - 22) =      7.10878  eV     1   --> A              
     e( 23 - 23) =      7.13210  eV     1   --> A              
     e( 24 - 24) =      7.30448  eV     1   --> A              
     e( 25 - 25) =      7.60004  eV     1   --> A              
     e( 26 - 26) =      8.05606  eV     1   --> A              
     e( 27 - 27) =      8.06186  eV     1   --> A              
     e( 28 - 28) =      8.22641  eV     1   --> A              
     e( 29 - 29) =      8.78468  eV     1   --> A              
     e( 30 - 30) =      9.00156  eV     1   --> A              
     e( 31 - 31) =      9.34844  eV     1   --> A              
     e( 32 - 32) =      9.58520  eV     1   --> A              
     e( 33 - 33) =      9.77289  eV     1   --> A              
     e( 34 - 34) =     10.61510  eV     1   --> A              
     e( 35 - 35) =     10.92202  eV     1   --> A              
     e( 36 - 36) =     10.96696  eV     1   --> A              
     e( 37 - 37) =     10.99436  eV     1   --> A              
     e( 38 - 38) =     11.25225  eV     1   --> A              
     e( 39 - 39) =     11.37970  eV     1   --> A              
     e( 40 - 40) =     12.01743  eV     1   --> A              
     e( 41 - 41) =     12.05969  eV     1   --> A              
     e( 42 - 42) =     12.29811  eV     1   --> A              
     e( 43 - 43) =     12.37532  eV     1   --> A              
     e( 44 - 44) =     12.63640  eV     1   --> A              
     e( 45 - 45) =     13.19713  eV     1   --> A              
     e( 46 - 46) =     13.55774  eV     1   --> A              
     e( 47 - 47) =     14.14749  eV     1   --> A              
     e( 48 - 48) =     14.23117  eV     1   --> A              

 **************************************************************************

 **************************************************************************

                    xk=(   0.75000,   0.38750,   0.36250  )

     Band symmetry, C_1 (1)     point group:

     e(  1 -  1) =     -3.76394  eV     1   --> A              
     e(  2 -  2) =     -3.30391  eV     1   --> A              
     e(  3 -  3) =     -3.22995  eV     1   --> A              
     e(  4 -  4) =     -3.07214  eV     1   --> A              
     e(  5 -  5) =     -0.06253  eV     1   --> A              
     e(  6 -  6) =      0.09558  eV     1   --> A              
     e(  7 -  7) =      0.17172  eV     1   --> A              
     e(  8 -  8) =      0.67649  eV     1   --> A              
     e(  9 -  9) =      2.11095  eV     1   --> A              
     e( 10 - 10) =      2.43491  eV     1   --> A              
     e( 11 - 11) =      2.56982  eV     1   --> A              
     e( 12 - 12) =      3.21376  eV     1   --> A              
     e( 13 - 13) =      3.26132  eV     1   --> A              
     e( 14 - 14) =      3.26337  eV     1   --> A              
     e( 15 - 15) =      3.40521  eV     1   --> A              
     e( 16 - 16) =      3.88942  eV     1   --> A              
     e( 17 - 17) =      5.82720  eV     1   --> A              
     e( 18 - 18) =      6.06901  eV     1   --> A              
     e( 19 - 19) =      6.10583  eV     1   --> A              
     e( 20 - 20) =      6.16066  eV     1   --> A              
     e( 21 - 21) =      7.04587  eV     1   --> A              
     e( 22 - 22) =      7.11649  eV     1   --> A              
     e( 23 - 23) =      7.13711  eV     1   --> A              
     e( 24 - 24) =      7.27232  eV     1   --> A              
     e( 25 - 25) =      7.64039  eV     1   --> A              
     e( 26 - 26) =      8.01719  eV     1   --> A              
     e( 27 - 27) =      8.08593  eV     1   --> A              
     e( 28 - 28) =      8.19586  eV     1   --> A              
     e( 29 - 29) =      8.82001  eV     1   --> A              
     e( 30 - 30) =      8.96473  eV     1   --> A              
     e( 31 - 31) =      9.40457  eV     1   --> A              
     e( 32 - 32) =      9.58597  eV     1   --> A              
     e( 33 - 33) =      9.71966  eV     1   --> A              
     e( 34 - 34) =     10.60447  eV     1   --> A              
     e( 35 - 35) =     10.93761  eV     1   --> A              
     e( 36 - 36) =     10.98818  eV     1   --> A              
     e( 37 - 37) =     11.01650  eV     1   --> A              
     e( 38 - 38) =     11.20942  eV     1   --> A              
     e( 39 - 39) =     11.37784  eV     1   --> A              
     e( 40 - 40) =     12.08833  eV     1   --> A              
     e( 41 - 41) =     12.09763  eV     1   --> A              
     e( 42 - 42) =     12.28324  eV     1   --> A              
     e( 43 - 43) =     12.34821  eV     1   --> A              
     e( 44 - 44) =     12.54661  eV     1   --> A              
     e( 45 - 45) =     13.27644  eV     1   --> A              
     e( 46 - 46) =     13.52898  eV     1   --> A              
     e( 47 - 47) =     14.20634  eV     1   --> A              
     e( 48 - 48) =     14.21088  eV     1   --> A              

 **************************************************************************

 **************************************************************************

                    xk=(   0.75000,   0.38125,   0.36875  )

     Band symmetry, C_1 (1)     point group:

     e(  1 -  1) =     -3.76457  eV     1   --> A              
     e(  2 -  2) =     -3.28483  eV     1   --> A              
     e(  3 -  3) =     -3.24777  eV     1   --> A              
     e(  4 -  4) =     -3.07260  eV     1   --> A              
     e(  5 -  5) =     -0.06324  eV     1   --> A              
     e(  6 -  6) =      0.11268  eV     1   --> A              
     e(  7 -  7) =      0.15077  eV     1   --> A              
     e(  8 -  8) =      0.67603  eV     1   --> A              
     e(  9 -  9) =      2.11208  eV     1   --> A              
     e( 10 - 10) =      2.46819  eV     1   --> A              
     e( 11 - 11) =      2.53566  eV     1   --> A              
     e( 12 - 12) =      3.22646  eV     1   --> A              
     e( 13 - 13) =      3.25029  eV     1   --> A              
     e( 14 - 14) =      3.26777  eV     1   --> A              
     e( 15 - 15) =      3.40597  eV     1   --> A              
     e( 16 - 16) =      3.89609  eV     1   --> A              
     e( 17 - 17) =      5.81952  eV     1   --> A              
     e( 18 - 18) =      6.06379  eV     1   --> A              
     e( 19 - 19) =      6.11749  eV     1   --> A              
     e( 20 - 20) =      6.14493  eV     1   --> A              
     e( 21 - 21) =      7.06456  eV     1   --> A              
     e( 22 - 22) =      7.09998  eV     1   --> A              
     e( 23 - 23) =      7.16465  eV     1   --> A              
     e( 24 - 24) =      7.24256  eV     1   --> A              
     e( 25 - 25) =      7.66930  eV     1   --> A              
     e( 26 - 26) =      7.98916  eV     1   --> A              
     e( 27 - 27) =      8.11144  eV     1   --> A              
     e( 28 - 28) =      8.16647  eV     1   --> A              
     e( 29 - 29) =      8.85571  eV     1   --> A              
     e( 30 - 30) =      8.92811  eV     1   --> A              
     e( 31 - 31) =      9.45052  eV     1   --> A              
     e( 32 - 32) =      9.58643  eV     1   --> A              
     e( 33 - 33) =      9.67545  eV     1   --> A              
     e( 34 - 34) =     10.59807  eV     1   --> A              
     e( 35 - 35) =     10.95255  eV     1   --> A              
     e( 36 - 36) =     10.97852  eV     1   --> A              
     e( 37 - 37) =     11.06371  eV     1   --> A              
     e( 38 - 38) =     11.16632  eV     1   --> A              
     e( 39 - 39) =     11.37673  eV     1   --> A              
     e( 40 - 40) =     12.13065  eV     1   --> A              
     e( 41 - 41) =     12.13983  eV     1   --> A              
     e( 42 - 42) =     12.27424  eV     1   --> A              
     e( 43 - 43) =     12.34510  eV     1   --> A              
     e( 44 - 44) =     12.45954  eV     1   --> A              
     e( 45 - 45) =     13.35376  eV     1   --> A              
     e( 46 - 46) =     13.48379  eV     1   --> A              
     e( 47 - 47) =     14.18832  eV     1   --> A              
     e( 48 - 48) =     14.18926  eV     1   --> A              

 **************************************************************************

 **************************************************************************

                    xk=(   0.75000,   0.37500,   0.37500  )

     point group C_s (m)    
     there are  2 classes
     the character table:

       E     s    
A'     1.00  1.00
A''    1.00 -1.00

     the symmetry operations in each class and the name of the first element:

     E        1
                                                                 
     s        2
                                                                 

     Band symmetry, C_s (m)     point group:

     e(  1 -  1) =     -3.76479  eV     1   --> A'             
     e(  2 -  2) =     -3.26709  eV     1   --> A''            
     e(  3 -  3) =     -3.26510  eV     1   --> A'             
     e(  4 -  4) =     -3.07275  eV     1   --> A'             
     e(  5 -  5) =     -0.06347  eV     1   --> A'             
     e(  6 -  6) =      0.13077  eV     1   --> A'             
     e(  7 -  7) =      0.13139  eV     1   --> A''            
     e(  8 -  8) =      0.67587  eV     1   --> A'             
     e(  9 -  9) =      2.11245  eV     1   --> A'             
     e( 10 - 10) =      2.50136  eV     1   --> A''            
     e( 11 - 11) =      2.50219  eV     1   --> A'             
     e( 12 - 12) =      3.23798  eV     1   --> A''            
     e( 13 - 13) =      3.23932  eV     1   --> A'             
     e( 14 - 14) =      3.26926  eV     1   --> A''            
     e( 15 - 15) =      3.40623  eV     1   --> A'             
     e( 16 - 16) =      3.89833  eV     1   --> A''            
     e( 17 - 17) =      5.81695  eV     1   --> A'             
     e( 18 - 18) =      6.06203  eV     1   --> A'             
     e( 19 - 19) =      6.13041  eV     1   --> A'             
     e( 20 - 20) =      6.13065  eV     1   --> A''            
     e( 21 - 21) =      7.08196  eV     1   --> A''            
     e( 22 - 22) =      7.08330  eV     1   --> A'             
     e( 23 - 23) =      7.18107  eV     1   --> A''            
     e( 24 - 24) =      7.22542  eV     1   --> A'             
     e( 25 - 25) =      7.68016  eV     1   --> A'             
     e( 26 - 26) =      7.97861  eV     1   --> A''            
     e( 27 - 28) =      8.13827  eV     2   --> A'             
     e( 27 - 28) =      8.13827  eV     2   --> A''            
     e( 29 - 29) =      8.89167  eV     1   --> A''            
     e( 30 - 30) =      8.89184  eV     1   --> A'             
     e( 31 - 31) =      9.47062  eV     1   --> A'             
     e( 32 - 32) =      9.58658  eV     1   --> A'             
     e( 33 - 33) =      9.65594  eV     1   --> A''            
     e( 34 - 34) =     10.59594  eV     1   --> A'             
     e( 35 - 35) =     10.96620  eV     1   --> A'             
     e( 36 - 36) =     10.96656  eV     1   --> A''            
     e( 37 - 37) =     11.09573  eV     1   --> A'             
     e( 38 - 38) =     11.13571  eV     1   --> A''            
     e( 39 - 39) =     11.37637  eV     1   --> A'             
     e( 40 - 40) =     12.15078  eV     1   --> A''            
     e( 41 - 41) =     12.15111  eV     1   --> A'             
     e( 42 - 42) =     12.27125  eV     1   --> A'             
     e( 43 - 43) =     12.38551  eV     1   --> A'             
     e( 44 - 44) =     12.38575  eV     1   --> A''            
     e( 45 - 45) =     13.42419  eV     1   -->   ?
     e( 46 - 46) =     13.42429  eV     1   -->   ?
     e( 47 - 47) =     14.18190  eV     1   --> A''            
     e( 48 - 48) =     14.18238  eV     1   --> A'             

 **************************************************************************

     BANDS        :     11.36s CPU     15.36s WALL


   This run was terminated on:  16:43:40  25Sep2023            

=------------------------------------------------------------------------------=
   JOB DONE.
=------------------------------------------------------------------------------=
