
     Program PWSCF v.7.1 starts on 25Sep2023 at 16:42:29 

     This program is part of the open-source Quantum ESPRESSO suite
     for quantum simulation of materials; please cite
         "P. Giannozzi et al., J. Phys.:Condens. Matter 21 395502 (2009);
         "P. Giannozzi et al., J. Phys.:Condens. Matter 29 465901 (2017);
         "P. Giannozzi et al., J. Chem. Phys. 152 154105 (2020);
          URL http://www.quantum-espresso.org", 
     in publications or presentations arising from this work. More details at
     http://www.quantum-espresso.org/quote

     Parallel version (MPI & OpenMP), running on      10 processor cores
     Number of MPI processes:                10
     Threads/MPI process:                     1

     MPI processes distributed on     1 nodes
     11152 MiB available memory on the printing compute node when the environment starts

     Waiting for input...
     Reading input from standard input

     Current dimensions of program PWSCF are:
     Max number of different atomic species (ntypx) = 10
     Max number of k-points (npk) =  40000
     Max angular momentum in pseudopotentials (lmaxx) =  4

     Atomic positions and unit cell read from directory:
     ./work/pwscf.save/

     Message from routine set_cutoff:
     ecutrho < 4*ecutwfc, are you sure?
     Found identity + (  0.0000  0.5000  0.5000) symmetry
     This is a supercell, fractional translations are disabled
     Message from routine setup:
     using ibrav=0 with symmetry is DISCOURAGED, use correct ibrav instead

     R & G space division:  proc/nbgrp/npool/nimage =      10
     Subspace diagonalization in iterative solution of the eigenvalue problem:
     a serial algorithm will be used


     Parallelization info
     --------------------
     sticks:   dense  smooth     PW     G-vecs:    dense   smooth      PW
     Min         174     174     50                 5452     5452     870
     Max         175     175     51                 5457     5457     871
     Sum        1741    1741    509                54531    54531    8709

     Using Slab Decomposition



     bravais-lattice index     =            0
     lattice parameter (alat)  =      12.0284  a.u.
     unit-cell volume          =    1740.3100 (a.u.)^3
     number of atoms/cell      =           12
     number of atomic types    =            2
     number of electrons       =        32.00
     number of Kohn-Sham states=           48
     kinetic-energy cutoff     =      38.0000  Ry
     charge density cutoff     =     151.0000  Ry
     Exchange-correlation= PBE
                           (   1   4   3   4   0   0   0)

     celldm(1)=  12.028428  celldm(2)=   0.000000  celldm(3)=   0.000000
     celldm(4)=   0.000000  celldm(5)=   0.000000  celldm(6)=   0.000000

     crystal axes: (cart. coord. in units of alat)
               a(1) = (   1.000000   0.000000   0.000000 )  
               a(2) = (   0.000000   1.000000   0.000000 )  
               a(3) = (   0.000000   0.000000   1.000000 )  

     reciprocal axes: (cart. coord. in units 2 pi/alat)
               b(1) = (  1.000000  0.000000  0.000000 )  
               b(2) = (  0.000000  1.000000  0.000000 )  
               b(3) = (  0.000000  0.000000  1.000000 )  


     PseudoPot. # 1 for Mg read from file:
     ./../../pseudo/psl031_PBE/Mg.pbe-n-rrkjus_psl.0.3.0.UPF
     MD5 check sum: 5a494cc96b734f5314dbe0b5710da108
     Pseudo is Ultrasoft + core correction, Zval =  2.0
     Generated using "atomic" code by A. Dal Corso  v.5.0.2 svn rev. 10551
     Using radial grid of 1129 points,  4 beta functions with: 
                l(1) =   0
                l(2) =   0
                l(3) =   1
                l(4) =   1
     Q(r) pseudized with 0 coefficients 


     PseudoPot. # 2 for Si read from file:
     ./../../pseudo/psl031_PBE/Si.pbe-n-rrkjus_psl.0.1.UPF
     MD5 check sum: 11d6459536ed1f08c7422a364f7c6b82
     Pseudo is Ultrasoft + core correction, Zval =  4.0
     Generated using "atomic" code by A. Dal Corso  v.5.0.99 svn rev. 10869
     Using radial grid of 1141 points,  4 beta functions with: 
                l(1) =   0
                l(2) =   0
                l(3) =   1
                l(4) =   1
     Q(r) pseudized with 0 coefficients 


     atomic species   valence    mass     pseudopotential
        Mg             2.00    24.30500     Mg( 1.00)
        Si             4.00    28.08500     Si( 1.00)

     48 Sym. Ops., with inversion, found


                                    s                        frac. trans.

      isym =  1     identity                                     

 cryst.   s( 1) = (     1          0          0      )
                  (     0          1          0      )
                  (     0          0          1      )

 cart.    s( 1) = (  1.0000000  0.0000000  0.0000000 )
                  (  0.0000000  1.0000000  0.0000000 )
                  (  0.0000000  0.0000000  1.0000000 )


      isym =  2     180 deg rotation - cart. axis [0,0,1]        

 cryst.   s( 2) = (    -1          0          0      )
                  (     0         -1          0      )
                  (     0          0          1      )

 cart.    s( 2) = ( -1.0000000  0.0000000  0.0000000 )
                  (  0.0000000 -1.0000000  0.0000000 )
                  (  0.0000000  0.0000000  1.0000000 )


      isym =  3     180 deg rotation - cart. axis [0,1,0]        

 cryst.   s( 3) = (    -1          0          0      )
                  (     0          1          0      )
                  (     0          0         -1      )

 cart.    s( 3) = ( -1.0000000  0.0000000  0.0000000 )
                  (  0.0000000  1.0000000  0.0000000 )
                  (  0.0000000  0.0000000 -1.0000000 )


      isym =  4     180 deg rotation - cart. axis [1,0,0]        

 cryst.   s( 4) = (     1          0          0      )
                  (     0         -1          0      )
                  (     0          0         -1      )

 cart.    s( 4) = (  1.0000000  0.0000000  0.0000000 )
                  (  0.0000000 -1.0000000  0.0000000 )
                  (  0.0000000  0.0000000 -1.0000000 )


      isym =  5     180 deg rotation - cart. axis [1,1,0]        

 cryst.   s( 5) = (     0          1          0      )
                  (     1          0          0      )
                  (     0          0         -1      )

 cart.    s( 5) = (  0.0000000  1.0000000  0.0000000 )
                  (  1.0000000  0.0000000  0.0000000 )
                  (  0.0000000  0.0000000 -1.0000000 )


      isym =  6     180 deg rotation - cart. axis [1,-1,0]       

 cryst.   s( 6) = (     0         -1          0      )
                  (    -1          0          0      )
                  (     0          0         -1      )

 cart.    s( 6) = (  0.0000000 -1.0000000  0.0000000 )
                  ( -1.0000000  0.0000000  0.0000000 )
                  (  0.0000000  0.0000000 -1.0000000 )


      isym =  7      90 deg rotation - cart. axis [0,0,-1]       

 cryst.   s( 7) = (     0         -1          0      )
                  (     1          0          0      )
                  (     0          0          1      )

 cart.    s( 7) = (  0.0000000  1.0000000  0.0000000 )
                  ( -1.0000000  0.0000000  0.0000000 )
                  (  0.0000000  0.0000000  1.0000000 )


      isym =  8      90 deg rotation - cart. axis [0,0,1]        

 cryst.   s( 8) = (     0          1          0      )
                  (    -1          0          0      )
                  (     0          0          1      )

 cart.    s( 8) = (  0.0000000 -1.0000000  0.0000000 )
                  (  1.0000000  0.0000000  0.0000000 )
                  (  0.0000000  0.0000000  1.0000000 )


      isym =  9     180 deg rotation - cart. axis [1,0,1]        

 cryst.   s( 9) = (     0          0          1      )
                  (     0         -1          0      )
                  (     1          0          0      )

 cart.    s( 9) = (  0.0000000  0.0000000  1.0000000 )
                  (  0.0000000 -1.0000000  0.0000000 )
                  (  1.0000000  0.0000000  0.0000000 )


      isym = 10     180 deg rotation - cart. axis [-1,0,1]       

 cryst.   s(10) = (     0          0         -1      )
                  (     0         -1          0      )
                  (    -1          0          0      )

 cart.    s(10) = (  0.0000000  0.0000000 -1.0000000 )
                  (  0.0000000 -1.0000000  0.0000000 )
                  ( -1.0000000  0.0000000  0.0000000 )


      isym = 11      90 deg rotation - cart. axis [0,1,0]        

 cryst.   s(11) = (     0          0         -1      )
                  (     0          1          0      )
                  (     1          0          0      )

 cart.    s(11) = (  0.0000000  0.0000000  1.0000000 )
                  (  0.0000000  1.0000000  0.0000000 )
                  ( -1.0000000  0.0000000  0.0000000 )


      isym = 12      90 deg rotation - cart. axis [0,-1,0]       

 cryst.   s(12) = (     0          0          1      )
                  (     0          1          0      )
                  (    -1          0          0      )

 cart.    s(12) = (  0.0000000  0.0000000 -1.0000000 )
                  (  0.0000000  1.0000000  0.0000000 )
                  (  1.0000000  0.0000000  0.0000000 )


      isym = 13     180 deg rotation - cart. axis [0,1,1]        

 cryst.   s(13) = (    -1          0          0      )
                  (     0          0          1      )
                  (     0          1          0      )

 cart.    s(13) = ( -1.0000000  0.0000000  0.0000000 )
                  (  0.0000000  0.0000000  1.0000000 )
                  (  0.0000000  1.0000000  0.0000000 )


      isym = 14     180 deg rotation - cart. axis [0,1,-1]       

 cryst.   s(14) = (    -1          0          0      )
                  (     0          0         -1      )
                  (     0         -1          0      )

 cart.    s(14) = ( -1.0000000  0.0000000  0.0000000 )
                  (  0.0000000  0.0000000 -1.0000000 )
                  (  0.0000000 -1.0000000  0.0000000 )


      isym = 15      90 deg rotation - cart. axis [-1,0,0]       

 cryst.   s(15) = (     1          0          0      )
                  (     0          0         -1      )
                  (     0          1          0      )

 cart.    s(15) = (  1.0000000  0.0000000  0.0000000 )
                  (  0.0000000  0.0000000  1.0000000 )
                  (  0.0000000 -1.0000000  0.0000000 )


      isym = 16      90 deg rotation - cart. axis [1,0,0]        

 cryst.   s(16) = (     1          0          0      )
                  (     0          0          1      )
                  (     0         -1          0      )

 cart.    s(16) = (  1.0000000  0.0000000  0.0000000 )
                  (  0.0000000  0.0000000 -1.0000000 )
                  (  0.0000000  1.0000000  0.0000000 )


      isym = 17     120 deg rotation - cart. axis [-1,-1,-1]     

 cryst.   s(17) = (     0          0          1      )
                  (     1          0          0      )
                  (     0          1          0      )

 cart.    s(17) = (  0.0000000  1.0000000  0.0000000 )
                  (  0.0000000  0.0000000  1.0000000 )
                  (  1.0000000  0.0000000  0.0000000 )


      isym = 18     120 deg rotation - cart. axis [-1,1,1]       

 cryst.   s(18) = (     0          0         -1      )
                  (    -1          0          0      )
                  (     0          1          0      )

 cart.    s(18) = (  0.0000000 -1.0000000  0.0000000 )
                  (  0.0000000  0.0000000  1.0000000 )
                  ( -1.0000000  0.0000000  0.0000000 )


      isym = 19     120 deg rotation - cart. axis [1,1,-1]       

 cryst.   s(19) = (     0          0         -1      )
                  (     1          0          0      )
                  (     0         -1          0      )

 cart.    s(19) = (  0.0000000  1.0000000  0.0000000 )
                  (  0.0000000  0.0000000 -1.0000000 )
                  ( -1.0000000  0.0000000  0.0000000 )


      isym = 20     120 deg rotation - cart. axis [1,-1,1]       

 cryst.   s(20) = (     0          0          1      )
                  (    -1          0          0      )
                  (     0         -1          0      )

 cart.    s(20) = (  0.0000000 -1.0000000  0.0000000 )
                  (  0.0000000  0.0000000 -1.0000000 )
                  (  1.0000000  0.0000000  0.0000000 )


      isym = 21     120 deg rotation - cart. axis [1,1,1]        

 cryst.   s(21) = (     0          1          0      )
                  (     0          0          1      )
                  (     1          0          0      )

 cart.    s(21) = (  0.0000000  0.0000000  1.0000000 )
                  (  1.0000000  0.0000000  0.0000000 )
                  (  0.0000000  1.0000000  0.0000000 )


      isym = 22     120 deg rotation - cart. axis [-1,1,-1]      

 cryst.   s(22) = (     0         -1          0      )
                  (     0          0         -1      )
                  (     1          0          0      )

 cart.    s(22) = (  0.0000000  0.0000000  1.0000000 )
                  ( -1.0000000  0.0000000  0.0000000 )
                  (  0.0000000 -1.0000000  0.0000000 )


      isym = 23     120 deg rotation - cart. axis [1,-1,-1]      

 cryst.   s(23) = (     0         -1          0      )
                  (     0          0          1      )
                  (    -1          0          0      )

 cart.    s(23) = (  0.0000000  0.0000000 -1.0000000 )
                  ( -1.0000000  0.0000000  0.0000000 )
                  (  0.0000000  1.0000000  0.0000000 )


      isym = 24     120 deg rotation - cart. axis [-1,-1,1]      

 cryst.   s(24) = (     0          1          0      )
                  (     0          0         -1      )
                  (    -1          0          0      )

 cart.    s(24) = (  0.0000000  0.0000000 -1.0000000 )
                  (  1.0000000  0.0000000  0.0000000 )
                  (  0.0000000 -1.0000000  0.0000000 )


      isym = 25     inversion                                    

 cryst.   s(25) = (    -1          0          0      )
                  (     0         -1          0      )
                  (     0          0         -1      )

 cart.    s(25) = ( -1.0000000  0.0000000  0.0000000 )
                  (  0.0000000 -1.0000000  0.0000000 )
                  (  0.0000000  0.0000000 -1.0000000 )


      isym = 26     inv. 180 deg rotation - cart. axis [0,0,1]   

 cryst.   s(26) = (     1          0          0      )
                  (     0          1          0      )
                  (     0          0         -1      )

 cart.    s(26) = (  1.0000000  0.0000000  0.0000000 )
                  (  0.0000000  1.0000000  0.0000000 )
                  (  0.0000000  0.0000000 -1.0000000 )


      isym = 27     inv. 180 deg rotation - cart. axis [0,1,0]   

 cryst.   s(27) = (     1          0          0      )
                  (     0         -1          0      )
                  (     0          0          1      )

 cart.    s(27) = (  1.0000000  0.0000000  0.0000000 )
                  (  0.0000000 -1.0000000  0.0000000 )
                  (  0.0000000  0.0000000  1.0000000 )


      isym = 28     inv. 180 deg rotation - cart. axis [1,0,0]   

 cryst.   s(28) = (    -1          0          0      )
                  (     0          1          0      )
                  (     0          0          1      )

 cart.    s(28) = ( -1.0000000  0.0000000  0.0000000 )
                  (  0.0000000  1.0000000  0.0000000 )
                  (  0.0000000  0.0000000  1.0000000 )


      isym = 29     inv. 180 deg rotation - cart. axis [1,1,0]   

 cryst.   s(29) = (     0         -1          0      )
                  (    -1          0          0      )
                  (     0          0          1      )

 cart.    s(29) = (  0.0000000 -1.0000000  0.0000000 )
                  ( -1.0000000  0.0000000  0.0000000 )
                  (  0.0000000  0.0000000  1.0000000 )


      isym = 30     inv. 180 deg rotation - cart. axis [1,-1,0]  

 cryst.   s(30) = (     0          1          0      )
                  (     1          0          0      )
                  (     0          0          1      )

 cart.    s(30) = (  0.0000000  1.0000000  0.0000000 )
                  (  1.0000000  0.0000000  0.0000000 )
                  (  0.0000000  0.0000000  1.0000000 )


      isym = 31     inv.  90 deg rotation - cart. axis [0,0,-1]  

 cryst.   s(31) = (     0          1          0      )
                  (    -1          0          0      )
                  (     0          0         -1      )

 cart.    s(31) = (  0.0000000 -1.0000000  0.0000000 )
                  (  1.0000000  0.0000000  0.0000000 )
                  (  0.0000000  0.0000000 -1.0000000 )


      isym = 32     inv.  90 deg rotation - cart. axis [0,0,1]   

 cryst.   s(32) = (     0         -1          0      )
                  (     1          0          0      )
                  (     0          0         -1      )

 cart.    s(32) = (  0.0000000  1.0000000  0.0000000 )
                  ( -1.0000000  0.0000000  0.0000000 )
                  (  0.0000000  0.0000000 -1.0000000 )


      isym = 33     inv. 180 deg rotation - cart. axis [1,0,1]   

 cryst.   s(33) = (     0          0         -1      )
                  (     0          1          0      )
                  (    -1          0          0      )

 cart.    s(33) = (  0.0000000  0.0000000 -1.0000000 )
                  (  0.0000000  1.0000000  0.0000000 )
                  ( -1.0000000  0.0000000  0.0000000 )


      isym = 34     inv. 180 deg rotation - cart. axis [-1,0,1]  

 cryst.   s(34) = (     0          0          1      )
                  (     0          1          0      )
                  (     1          0          0      )

 cart.    s(34) = (  0.0000000  0.0000000  1.0000000 )
                  (  0.0000000  1.0000000  0.0000000 )
                  (  1.0000000  0.0000000  0.0000000 )


      isym = 35     inv.  90 deg rotation - cart. axis [0,1,0]   

 cryst.   s(35) = (     0          0          1      )
                  (     0         -1          0      )
                  (    -1          0          0      )

 cart.    s(35) = (  0.0000000  0.0000000 -1.0000000 )
                  (  0.0000000 -1.0000000  0.0000000 )
                  (  1.0000000  0.0000000  0.0000000 )


      isym = 36     inv.  90 deg rotation - cart. axis [0,-1,0]  

 cryst.   s(36) = (     0          0         -1      )
                  (     0         -1          0      )
                  (     1          0          0      )

 cart.    s(36) = (  0.0000000  0.0000000  1.0000000 )
                  (  0.0000000 -1.0000000  0.0000000 )
                  ( -1.0000000  0.0000000  0.0000000 )


      isym = 37     inv. 180 deg rotation - cart. axis [0,1,1]   

 cryst.   s(37) = (     1          0          0      )
                  (     0          0         -1      )
                  (     0         -1          0      )

 cart.    s(37) = (  1.0000000  0.0000000  0.0000000 )
                  (  0.0000000  0.0000000 -1.0000000 )
                  (  0.0000000 -1.0000000  0.0000000 )


      isym = 38     inv. 180 deg rotation - cart. axis [0,1,-1]  

 cryst.   s(38) = (     1          0          0      )
                  (     0          0          1      )
                  (     0          1          0      )

 cart.    s(38) = (  1.0000000  0.0000000  0.0000000 )
                  (  0.0000000  0.0000000  1.0000000 )
                  (  0.0000000  1.0000000  0.0000000 )


      isym = 39     inv.  90 deg rotation - cart. axis [-1,0,0]  

 cryst.   s(39) = (    -1          0          0      )
                  (     0          0          1      )
                  (     0         -1          0      )

 cart.    s(39) = ( -1.0000000  0.0000000  0.0000000 )
                  (  0.0000000  0.0000000 -1.0000000 )
                  (  0.0000000  1.0000000  0.0000000 )


      isym = 40     inv.  90 deg rotation - cart. axis [1,0,0]   

 cryst.   s(40) = (    -1          0          0      )
                  (     0          0         -1      )
                  (     0          1          0      )

 cart.    s(40) = ( -1.0000000  0.0000000  0.0000000 )
                  (  0.0000000  0.0000000  1.0000000 )
                  (  0.0000000 -1.0000000  0.0000000 )


      isym = 41     inv. 120 deg rotation - cart. axis [-1,-1,-1]

 cryst.   s(41) = (     0          0         -1      )
                  (    -1          0          0      )
                  (     0         -1          0      )

 cart.    s(41) = (  0.0000000 -1.0000000  0.0000000 )
                  (  0.0000000  0.0000000 -1.0000000 )
                  ( -1.0000000  0.0000000  0.0000000 )


      isym = 42     inv. 120 deg rotation - cart. axis [-1,1,1]  

 cryst.   s(42) = (     0          0          1      )
                  (     1          0          0      )
                  (     0         -1          0      )

 cart.    s(42) = (  0.0000000  1.0000000  0.0000000 )
                  (  0.0000000  0.0000000 -1.0000000 )
                  (  1.0000000  0.0000000  0.0000000 )


      isym = 43     inv. 120 deg rotation - cart. axis [1,1,-1]  

 cryst.   s(43) = (     0          0          1      )
                  (    -1          0          0      )
                  (     0          1          0      )

 cart.    s(43) = (  0.0000000 -1.0000000  0.0000000 )
                  (  0.0000000  0.0000000  1.0000000 )
                  (  1.0000000  0.0000000  0.0000000 )


      isym = 44     inv. 120 deg rotation - cart. axis [1,-1,1]  

 cryst.   s(44) = (     0          0         -1      )
                  (     1          0          0      )
                  (     0          1          0      )

 cart.    s(44) = (  0.0000000  1.0000000  0.0000000 )
                  (  0.0000000  0.0000000  1.0000000 )
                  ( -1.0000000  0.0000000  0.0000000 )


      isym = 45     inv. 120 deg rotation - cart. axis [1,1,1]   

 cryst.   s(45) = (     0         -1          0      )
                  (     0          0         -1      )
                  (    -1          0          0      )

 cart.    s(45) = (  0.0000000  0.0000000 -1.0000000 )
                  ( -1.0000000  0.0000000  0.0000000 )
                  (  0.0000000 -1.0000000  0.0000000 )


      isym = 46     inv. 120 deg rotation - cart. axis [-1,1,-1] 

 cryst.   s(46) = (     0          1          0      )
                  (     0          0          1      )
                  (    -1          0          0      )

 cart.    s(46) = (  0.0000000  0.0000000 -1.0000000 )
                  (  1.0000000  0.0000000  0.0000000 )
                  (  0.0000000  1.0000000  0.0000000 )


      isym = 47     inv. 120 deg rotation - cart. axis [1,-1,-1] 

 cryst.   s(47) = (     0          1          0      )
                  (     0          0         -1      )
                  (     1          0          0      )

 cart.    s(47) = (  0.0000000  0.0000000  1.0000000 )
                  (  1.0000000  0.0000000  0.0000000 )
                  (  0.0000000 -1.0000000  0.0000000 )


      isym = 48     inv. 120 deg rotation - cart. axis [-1,-1,1] 

 cryst.   s(48) = (     0         -1          0      )
                  (     0          0          1      )
                  (     1          0          0      )

 cart.    s(48) = (  0.0000000  0.0000000  1.0000000 )
                  ( -1.0000000  0.0000000  0.0000000 )
                  (  0.0000000  1.0000000  0.0000000 )


   Cartesian axes

     site n.     atom                  positions (alat units)
         1           Si  tau(   1) = (   0.0000000   0.0000000   0.0000000  )
         2           Si  tau(   2) = (   0.0000000   0.5000000   0.5000000  )
         3           Si  tau(   3) = (   0.5000000   0.0000000   0.5000000  )
         4           Si  tau(   4) = (   0.5000000   0.5000000   0.0000000  )
         5           Mg  tau(   5) = (   0.2500000   0.7500000   0.7500000  )
         6           Mg  tau(   6) = (   0.7500000   0.2500000   0.2500000  )
         7           Mg  tau(   7) = (   0.7500000   0.2500000   0.7500000  )
         8           Mg  tau(   8) = (   0.2500000   0.7500000   0.2500000  )
         9           Mg  tau(   9) = (   0.7500000   0.7500000   0.2500000  )
        10           Mg  tau(  10) = (   0.2500000   0.2500000   0.7500000  )
        11           Mg  tau(  11) = (   0.2500000   0.2500000   0.2500000  )
        12           Mg  tau(  12) = (   0.7500000   0.7500000   0.7500000  )

   Crystallographic axes

     site n.     atom                  positions (cryst. coord.)
         1           Si  tau(   1) = (  0.0000000  0.0000000  0.0000000  )
         2           Si  tau(   2) = (  0.0000000  0.5000000  0.5000000  )
         3           Si  tau(   3) = (  0.5000000  0.0000000  0.5000000  )
         4           Si  tau(   4) = (  0.5000000  0.5000000  0.0000000  )
         5           Mg  tau(   5) = (  0.2500000  0.7500000  0.7500000  )
         6           Mg  tau(   6) = (  0.7500000  0.2500000  0.2500000  )
         7           Mg  tau(   7) = (  0.7500000  0.2500000  0.7500000  )
         8           Mg  tau(   8) = (  0.2500000  0.7500000  0.2500000  )
         9           Mg  tau(   9) = (  0.7500000  0.7500000  0.2500000  )
        10           Mg  tau(  10) = (  0.2500000  0.2500000  0.7500000  )
        11           Mg  tau(  11) = (  0.2500000  0.2500000  0.2500000  )
        12           Mg  tau(  12) = (  0.7500000  0.7500000  0.7500000  )

     number of k points=   101  Methfessel-Paxton smearing, width (Ry)=  0.0100
                       cart. coord. in units 2pi/alat
        k(    1) = (   0.5000000   0.2500000   0.7500000), wk =   0.0198020
        k(    2) = (   0.4750000   0.2625000   0.7125000), wk =   0.0198020
        k(    3) = (   0.4500000   0.2750000   0.6750000), wk =   0.0198020
        k(    4) = (   0.4250000   0.2875000   0.6375000), wk =   0.0198020
        k(    5) = (   0.4000000   0.3000000   0.6000000), wk =   0.0198020
        k(    6) = (   0.3750000   0.3125000   0.5625000), wk =   0.0198020
        k(    7) = (   0.3500000   0.3250000   0.5250000), wk =   0.0198020
        k(    8) = (   0.3250000   0.3375000   0.4875000), wk =   0.0198020
        k(    9) = (   0.3000000   0.3500000   0.4500000), wk =   0.0198020
        k(   10) = (   0.2750000   0.3625000   0.4125000), wk =   0.0198020
        k(   11) = (   0.2500000   0.3750000   0.3750000), wk =   0.0198020
        k(   12) = (   0.2250000   0.3875000   0.3375000), wk =   0.0198020
        k(   13) = (   0.2000000   0.4000000   0.3000000), wk =   0.0198020
        k(   14) = (   0.1750000   0.4125000   0.2625000), wk =   0.0198020
        k(   15) = (   0.1500000   0.4250000   0.2250000), wk =   0.0198020
        k(   16) = (   0.1250000   0.4375000   0.1875000), wk =   0.0198020
        k(   17) = (   0.1000000   0.4500000   0.1500000), wk =   0.0198020
        k(   18) = (   0.0750000   0.4625000   0.1125000), wk =   0.0198020
        k(   19) = (   0.0500000   0.4750000   0.0750000), wk =   0.0198020
        k(   20) = (   0.0250000   0.4875000   0.0375000), wk =   0.0198020
        k(   21) = (   0.0000000   0.5000000   0.0000000), wk =   0.0198020
        k(   22) = (   0.0000000   0.4750000   0.0000000), wk =   0.0198020
        k(   23) = (   0.0000000   0.4500000   0.0000000), wk =   0.0198020
        k(   24) = (   0.0000000   0.4250000   0.0000000), wk =   0.0198020
        k(   25) = (   0.0000000   0.4000000   0.0000000), wk =   0.0198020
        k(   26) = (   0.0000000   0.3750000   0.0000000), wk =   0.0198020
        k(   27) = (   0.0000000   0.3500000   0.0000000), wk =   0.0198020
        k(   28) = (   0.0000000   0.3250000   0.0000000), wk =   0.0198020
        k(   29) = (   0.0000000   0.3000000   0.0000000), wk =   0.0198020
        k(   30) = (   0.0000000   0.2750000   0.0000000), wk =   0.0198020
        k(   31) = (   0.0000000   0.2500000   0.0000000), wk =   0.0198020
        k(   32) = (   0.0000000   0.2250000   0.0000000), wk =   0.0198020
        k(   33) = (   0.0000000   0.2000000   0.0000000), wk =   0.0198020
        k(   34) = (   0.0000000   0.1750000   0.0000000), wk =   0.0198020
        k(   35) = (   0.0000000   0.1500000   0.0000000), wk =   0.0198020
        k(   36) = (   0.0000000   0.1250000   0.0000000), wk =   0.0198020
        k(   37) = (   0.0000000   0.1000000   0.0000000), wk =   0.0198020
        k(   38) = (   0.0000000   0.0750000   0.0000000), wk =   0.0198020
        k(   39) = (   0.0000000   0.0500000   0.0000000), wk =   0.0198020
        k(   40) = (   0.0000000   0.0250000   0.0000000), wk =   0.0198020
        k(   41) = (   0.0000000   0.0000000   0.0000000), wk =   0.0198020
        k(   42) = (   0.0000000   0.0250000   0.0250000), wk =   0.0198020
        k(   43) = (   0.0000000   0.0500000   0.0500000), wk =   0.0198020
        k(   44) = (   0.0000000   0.0750000   0.0750000), wk =   0.0198020
        k(   45) = (   0.0000000   0.1000000   0.1000000), wk =   0.0198020
        k(   46) = (   0.0000000   0.1250000   0.1250000), wk =   0.0198020
        k(   47) = (   0.0000000   0.1500000   0.1500000), wk =   0.0198020
        k(   48) = (   0.0000000   0.1750000   0.1750000), wk =   0.0198020
        k(   49) = (   0.0000000   0.2000000   0.2000000), wk =   0.0198020
        k(   50) = (   0.0000000   0.2250000   0.2250000), wk =   0.0198020
        k(   51) = (   0.0000000   0.2500000   0.2500000), wk =   0.0198020
        k(   52) = (   0.0000000   0.2750000   0.2750000), wk =   0.0198020
        k(   53) = (   0.0000000   0.3000000   0.3000000), wk =   0.0198020
        k(   54) = (   0.0000000   0.3250000   0.3250000), wk =   0.0198020
        k(   55) = (   0.0000000   0.3500000   0.3500000), wk =   0.0198020
        k(   56) = (   0.0000000   0.3750000   0.3750000), wk =   0.0198020
        k(   57) = (   0.0000000   0.4000000   0.4000000), wk =   0.0198020
        k(   58) = (   0.0000000   0.4250000   0.4250000), wk =   0.0198020
        k(   59) = (   0.0000000   0.4500000   0.4500000), wk =   0.0198020
        k(   60) = (   0.0000000   0.4750000   0.4750000), wk =   0.0198020
        k(   61) = (   0.0000000   0.5000000   0.5000000), wk =   0.0198020
        k(   62) = (   0.0375000   0.5000000   0.4875000), wk =   0.0198020
        k(   63) = (   0.0750000   0.5000000   0.4750000), wk =   0.0198020
        k(   64) = (   0.1125000   0.5000000   0.4625000), wk =   0.0198020
        k(   65) = (   0.1500000   0.5000000   0.4500000), wk =   0.0198020
        k(   66) = (   0.1875000   0.5000000   0.4375000), wk =   0.0198020
        k(   67) = (   0.2250000   0.5000000   0.4250000), wk =   0.0198020
        k(   68) = (   0.2625000   0.5000000   0.4125000), wk =   0.0198020
        k(   69) = (   0.3000000   0.5000000   0.4000000), wk =   0.0198020
        k(   70) = (   0.3375000   0.5000000   0.3875000), wk =   0.0198020
        k(   71) = (   0.3750000   0.5000000   0.3750000), wk =   0.0198020
        k(   72) = (   0.4125000   0.5000000   0.3625000), wk =   0.0198020
        k(   73) = (   0.4500000   0.5000000   0.3500000), wk =   0.0198020
        k(   74) = (   0.4875000   0.5000000   0.3375000), wk =   0.0198020
        k(   75) = (   0.5250000   0.5000000   0.3250000), wk =   0.0198020
        k(   76) = (   0.5625000   0.5000000   0.3125000), wk =   0.0198020
        k(   77) = (   0.6000000   0.5000000   0.3000000), wk =   0.0198020
        k(   78) = (   0.6375000   0.5000000   0.2875000), wk =   0.0198020
        k(   79) = (   0.6750000   0.5000000   0.2750000), wk =   0.0198020
        k(   80) = (   0.7125000   0.5000000   0.2625000), wk =   0.0198020
        k(   81) = (   0.7500000   0.5000000   0.2500000), wk =   0.0198020
        k(   82) = (   0.7500000   0.4937500   0.2562500), wk =   0.0198020
        k(   83) = (   0.7500000   0.4875000   0.2625000), wk =   0.0198020
        k(   84) = (   0.7500000   0.4812500   0.2687500), wk =   0.0198020
        k(   85) = (   0.7500000   0.4750000   0.2750000), wk =   0.0198020
        k(   86) = (   0.7500000   0.4687500   0.2812500), wk =   0.0198020
        k(   87) = (   0.7500000   0.4625000   0.2875000), wk =   0.0198020
        k(   88) = (   0.7500000   0.4562500   0.2937500), wk =   0.0198020
        k(   89) = (   0.7500000   0.4500000   0.3000000), wk =   0.0198020
        k(   90) = (   0.7500000   0.4437500   0.3062500), wk =   0.0198020
        k(   91) = (   0.7500000   0.4375000   0.3125000), wk =   0.0198020
        k(   92) = (   0.7500000   0.4312500   0.3187500), wk =   0.0198020
        k(   93) = (   0.7500000   0.4250000   0.3250000), wk =   0.0198020
        k(   94) = (   0.7500000   0.4187500   0.3312500), wk =   0.0198020
        k(   95) = (   0.7500000   0.4125000   0.3375000), wk =   0.0198020
        k(   96) = (   0.7500000   0.4062500   0.3437500), wk =   0.0198020
        k(   97) = (   0.7500000   0.4000000   0.3500000), wk =   0.0198020
        k(   98) = (   0.7500000   0.3937500   0.3562500), wk =   0.0198020
        k(   99) = (   0.7500000   0.3875000   0.3625000), wk =   0.0198020
        k(  100) = (   0.7500000   0.3812500   0.3687500), wk =   0.0198020
        k(  101) = (   0.7500000   0.3750000   0.3750000), wk =   0.0198020

                       cryst. coord.
        k(    1) = (   0.5000000   0.2500000   0.7500000), wk =   0.0198020
        k(    2) = (   0.4750000   0.2625000   0.7125000), wk =   0.0198020
        k(    3) = (   0.4500000   0.2750000   0.6750000), wk =   0.0198020
        k(    4) = (   0.4250000   0.2875000   0.6375000), wk =   0.0198020
        k(    5) = (   0.4000000   0.3000000   0.6000000), wk =   0.0198020
        k(    6) = (   0.3750000   0.3125000   0.5625000), wk =   0.0198020
        k(    7) = (   0.3500000   0.3250000   0.5250000), wk =   0.0198020
        k(    8) = (   0.3250000   0.3375000   0.4875000), wk =   0.0198020
        k(    9) = (   0.3000000   0.3500000   0.4500000), wk =   0.0198020
        k(   10) = (   0.2750000   0.3625000   0.4125000), wk =   0.0198020
        k(   11) = (   0.2500000   0.3750000   0.3750000), wk =   0.0198020
        k(   12) = (   0.2250000   0.3875000   0.3375000), wk =   0.0198020
        k(   13) = (   0.2000000   0.4000000   0.3000000), wk =   0.0198020
        k(   14) = (   0.1750000   0.4125000   0.2625000), wk =   0.0198020
        k(   15) = (   0.1500000   0.4250000   0.2250000), wk =   0.0198020
        k(   16) = (   0.1250000   0.4375000   0.1875000), wk =   0.0198020
        k(   17) = (   0.1000000   0.4500000   0.1500000), wk =   0.0198020
        k(   18) = (   0.0750000   0.4625000   0.1125000), wk =   0.0198020
        k(   19) = (   0.0500000   0.4750000   0.0750000), wk =   0.0198020
        k(   20) = (   0.0250000   0.4875000   0.0375000), wk =   0.0198020
        k(   21) = (   0.0000000   0.5000000   0.0000000), wk =   0.0198020
        k(   22) = (   0.0000000   0.4750000   0.0000000), wk =   0.0198020
        k(   23) = (   0.0000000   0.4500000   0.0000000), wk =   0.0198020
        k(   24) = (   0.0000000   0.4250000   0.0000000), wk =   0.0198020
        k(   25) = (   0.0000000   0.4000000   0.0000000), wk =   0.0198020
        k(   26) = (   0.0000000   0.3750000   0.0000000), wk =   0.0198020
        k(   27) = (   0.0000000   0.3500000   0.0000000), wk =   0.0198020
        k(   28) = (   0.0000000   0.3250000   0.0000000), wk =   0.0198020
        k(   29) = (   0.0000000   0.3000000   0.0000000), wk =   0.0198020
        k(   30) = (   0.0000000   0.2750000   0.0000000), wk =   0.0198020
        k(   31) = (   0.0000000   0.2500000   0.0000000), wk =   0.0198020
        k(   32) = (   0.0000000   0.2250000   0.0000000), wk =   0.0198020
        k(   33) = (   0.0000000   0.2000000   0.0000000), wk =   0.0198020
        k(   34) = (   0.0000000   0.1750000   0.0000000), wk =   0.0198020
        k(   35) = (   0.0000000   0.1500000   0.0000000), wk =   0.0198020
        k(   36) = (   0.0000000   0.1250000   0.0000000), wk =   0.0198020
        k(   37) = (   0.0000000   0.1000000   0.0000000), wk =   0.0198020
        k(   38) = (   0.0000000   0.0750000   0.0000000), wk =   0.0198020
        k(   39) = (   0.0000000   0.0500000   0.0000000), wk =   0.0198020
        k(   40) = (   0.0000000   0.0250000   0.0000000), wk =   0.0198020
        k(   41) = (   0.0000000   0.0000000   0.0000000), wk =   0.0198020
        k(   42) = (   0.0000000   0.0250000   0.0250000), wk =   0.0198020
        k(   43) = (   0.0000000   0.0500000   0.0500000), wk =   0.0198020
        k(   44) = (   0.0000000   0.0750000   0.0750000), wk =   0.0198020
        k(   45) = (   0.0000000   0.1000000   0.1000000), wk =   0.0198020
        k(   46) = (   0.0000000   0.1250000   0.1250000), wk =   0.0198020
        k(   47) = (   0.0000000   0.1500000   0.1500000), wk =   0.0198020
        k(   48) = (   0.0000000   0.1750000   0.1750000), wk =   0.0198020
        k(   49) = (   0.0000000   0.2000000   0.2000000), wk =   0.0198020
        k(   50) = (   0.0000000   0.2250000   0.2250000), wk =   0.0198020
        k(   51) = (   0.0000000   0.2500000   0.2500000), wk =   0.0198020
        k(   52) = (   0.0000000   0.2750000   0.2750000), wk =   0.0198020
        k(   53) = (   0.0000000   0.3000000   0.3000000), wk =   0.0198020
        k(   54) = (   0.0000000   0.3250000   0.3250000), wk =   0.0198020
        k(   55) = (   0.0000000   0.3500000   0.3500000), wk =   0.0198020
        k(   56) = (   0.0000000   0.3750000   0.3750000), wk =   0.0198020
        k(   57) = (   0.0000000   0.4000000   0.4000000), wk =   0.0198020
        k(   58) = (   0.0000000   0.4250000   0.4250000), wk =   0.0198020
        k(   59) = (   0.0000000   0.4500000   0.4500000), wk =   0.0198020
        k(   60) = (   0.0000000   0.4750000   0.4750000), wk =   0.0198020
        k(   61) = (   0.0000000   0.5000000   0.5000000), wk =   0.0198020
        k(   62) = (   0.0375000   0.5000000   0.4875000), wk =   0.0198020
        k(   63) = (   0.0750000   0.5000000   0.4750000), wk =   0.0198020
        k(   64) = (   0.1125000   0.5000000   0.4625000), wk =   0.0198020
        k(   65) = (   0.1500000   0.5000000   0.4500000), wk =   0.0198020
        k(   66) = (   0.1875000   0.5000000   0.4375000), wk =   0.0198020
        k(   67) = (   0.2250000   0.5000000   0.4250000), wk =   0.0198020
        k(   68) = (   0.2625000   0.5000000   0.4125000), wk =   0.0198020
        k(   69) = (   0.3000000   0.5000000   0.4000000), wk =   0.0198020
        k(   70) = (   0.3375000   0.5000000   0.3875000), wk =   0.0198020
        k(   71) = (   0.3750000   0.5000000   0.3750000), wk =   0.0198020
        k(   72) = (   0.4125000   0.5000000   0.3625000), wk =   0.0198020
        k(   73) = (   0.4500000   0.5000000   0.3500000), wk =   0.0198020
        k(   74) = (   0.4875000   0.5000000   0.3375000), wk =   0.0198020
        k(   75) = (   0.5250000   0.5000000   0.3250000), wk =   0.0198020
        k(   76) = (   0.5625000   0.5000000   0.3125000), wk =   0.0198020
        k(   77) = (   0.6000000   0.5000000   0.3000000), wk =   0.0198020
        k(   78) = (   0.6375000   0.5000000   0.2875000), wk =   0.0198020
        k(   79) = (   0.6750000   0.5000000   0.2750000), wk =   0.0198020
        k(   80) = (   0.7125000   0.5000000   0.2625000), wk =   0.0198020
        k(   81) = (   0.7500000   0.5000000   0.2500000), wk =   0.0198020
        k(   82) = (   0.7500000   0.4937500   0.2562500), wk =   0.0198020
        k(   83) = (   0.7500000   0.4875000   0.2625000), wk =   0.0198020
        k(   84) = (   0.7500000   0.4812500   0.2687500), wk =   0.0198020
        k(   85) = (   0.7500000   0.4750000   0.2750000), wk =   0.0198020
        k(   86) = (   0.7500000   0.4687500   0.2812500), wk =   0.0198020
        k(   87) = (   0.7500000   0.4625000   0.2875000), wk =   0.0198020
        k(   88) = (   0.7500000   0.4562500   0.2937500), wk =   0.0198020
        k(   89) = (   0.7500000   0.4500000   0.3000000), wk =   0.0198020
        k(   90) = (   0.7500000   0.4437500   0.3062500), wk =   0.0198020
        k(   91) = (   0.7500000   0.4375000   0.3125000), wk =   0.0198020
        k(   92) = (   0.7500000   0.4312500   0.3187500), wk =   0.0198020
        k(   93) = (   0.7500000   0.4250000   0.3250000), wk =   0.0198020
        k(   94) = (   0.7500000   0.4187500   0.3312500), wk =   0.0198020
        k(   95) = (   0.7500000   0.4125000   0.3375000), wk =   0.0198020
        k(   96) = (   0.7500000   0.4062500   0.3437500), wk =   0.0198020
        k(   97) = (   0.7500000   0.4000000   0.3500000), wk =   0.0198020
        k(   98) = (   0.7500000   0.3937500   0.3562500), wk =   0.0198020
        k(   99) = (   0.7500000   0.3875000   0.3625000), wk =   0.0198020
        k(  100) = (   0.7500000   0.3812500   0.3687500), wk =   0.0198020
        k(  101) = (   0.7500000   0.3750000   0.3750000), wk =   0.0198020

     Dense  grid:    54531 G-vectors     FFT dimensions: (  48,  48,  48)

     Dynamical RAM for                 wfc:       0.50 MB

     Dynamical RAM for     wfc (w. buffer):      51.40 MB

     Dynamical RAM for           str. fact:       0.17 MB

     Dynamical RAM for           local pot:       0.00 MB

     Dynamical RAM for          nlocal pot:       1.01 MB

     Dynamical RAM for                qrad:       0.56 MB

     Dynamical RAM for          rho,v,vnew:       0.51 MB

     Dynamical RAM for           G-vectors:       0.35 MB

     Dynamical RAM for          h,s,v(r/c):       0.42 MB

     Dynamical RAM for          <psi|beta>:       0.07 MB

     Dynamical RAM for                 psi:       1.01 MB

     Dynamical RAM for                hpsi:       1.01 MB

     Dynamical RAM for                spsi:       1.01 MB

     Dynamical RAM for      wfcinit/wfcrot:       1.06 MB

     Dynamical RAM for           addusdens:       4.24 MB

     Estimated static dynamical RAM per process >      54.69 MB

     Estimated max dynamical RAM per process >      58.94 MB

     Estimated total dynamical RAM >     589.37 MB

     The potential is recalculated from file :
     ./work/pwscf.save/charge-density

     Starting wfcs are   48 randomized atomic wfcs

     Band Structure Calculation
     Davidson diagonalization with overlap

     Computing kpt #:     1  of   101
     total cpu time spent up to now is        1.0 secs

     Computing kpt #:     2  of   101
     total cpu time spent up to now is        1.4 secs

     Computing kpt #:     3  of   101
     total cpu time spent up to now is        1.8 secs

     Computing kpt #:     4  of   101
     total cpu time spent up to now is        2.2 secs

     Computing kpt #:     5  of   101
     total cpu time spent up to now is        2.6 secs

     Computing kpt #:     6  of   101
     total cpu time spent up to now is        3.1 secs

     Computing kpt #:     7  of   101
     total cpu time spent up to now is        3.5 secs

     Computing kpt #:     8  of   101
     total cpu time spent up to now is        3.9 secs

     Computing kpt #:     9  of   101
     total cpu time spent up to now is        4.3 secs

     Computing kpt #:    10  of   101
     total cpu time spent up to now is        4.7 secs

     Computing kpt #:    11  of   101
     total cpu time spent up to now is        5.1 secs

     Computing kpt #:    12  of   101
     total cpu time spent up to now is        5.6 secs

     Computing kpt #:    13  of   101
     total cpu time spent up to now is        6.1 secs

     Computing kpt #:    14  of   101
     total cpu time spent up to now is        6.6 secs

     Computing kpt #:    15  of   101
     total cpu time spent up to now is        7.1 secs

     Computing kpt #:    16  of   101
     total cpu time spent up to now is        7.6 secs

     Computing kpt #:    17  of   101
     total cpu time spent up to now is        8.2 secs

     Computing kpt #:    18  of   101
     total cpu time spent up to now is        8.7 secs

     Computing kpt #:    19  of   101
     total cpu time spent up to now is        9.3 secs

     Computing kpt #:    20  of   101
     total cpu time spent up to now is        9.7 secs

     Computing kpt #:    21  of   101
     total cpu time spent up to now is       10.1 secs

     Computing kpt #:    22  of   101
     total cpu time spent up to now is       10.7 secs

     Computing kpt #:    23  of   101
     total cpu time spent up to now is       11.2 secs

     Computing kpt #:    24  of   101
     total cpu time spent up to now is       11.7 secs

     Computing kpt #:    25  of   101
     total cpu time spent up to now is       12.2 secs

     Computing kpt #:    26  of   101
     total cpu time spent up to now is       12.8 secs

     Computing kpt #:    27  of   101
     total cpu time spent up to now is       13.3 secs

     Computing kpt #:    28  of   101
     total cpu time spent up to now is       13.9 secs

     Computing kpt #:    29  of   101
     total cpu time spent up to now is       14.4 secs

     Computing kpt #:    30  of   101
     total cpu time spent up to now is       14.9 secs

     Computing kpt #:    31  of   101
     total cpu time spent up to now is       15.5 secs

     Computing kpt #:    32  of   101
     total cpu time spent up to now is       16.0 secs

     Computing kpt #:    33  of   101
     total cpu time spent up to now is       16.5 secs

     Computing kpt #:    34  of   101
     total cpu time spent up to now is       17.0 secs

     Computing kpt #:    35  of   101
     total cpu time spent up to now is       17.5 secs

     Computing kpt #:    36  of   101
     total cpu time spent up to now is       18.0 secs

     Computing kpt #:    37  of   101
     total cpu time spent up to now is       18.5 secs

     Computing kpt #:    38  of   101
     total cpu time spent up to now is       19.0 secs

     Computing kpt #:    39  of   101
     total cpu time spent up to now is       19.5 secs

     Computing kpt #:    40  of   101
     total cpu time spent up to now is       20.1 secs

     Computing kpt #:    41  of   101
     total cpu time spent up to now is       20.5 secs

     Computing kpt #:    42  of   101
     total cpu time spent up to now is       21.0 secs

     Computing kpt #:    43  of   101
     total cpu time spent up to now is       21.5 secs

     Computing kpt #:    44  of   101
     total cpu time spent up to now is       21.9 secs

     Computing kpt #:    45  of   101
     total cpu time spent up to now is       22.5 secs

     Computing kpt #:    46  of   101
     total cpu time spent up to now is       23.0 secs

     Computing kpt #:    47  of   101
     total cpu time spent up to now is       23.5 secs

     Computing kpt #:    48  of   101
     total cpu time spent up to now is       24.1 secs

     Computing kpt #:    49  of   101
     total cpu time spent up to now is       24.6 secs

     Computing kpt #:    50  of   101
     total cpu time spent up to now is       25.2 secs

     Computing kpt #:    51  of   101
     total cpu time spent up to now is       25.8 secs

     Computing kpt #:    52  of   101
     total cpu time spent up to now is       26.3 secs

     Computing kpt #:    53  of   101
     total cpu time spent up to now is       26.9 secs

     Computing kpt #:    54  of   101
     total cpu time spent up to now is       27.5 secs

     Computing kpt #:    55  of   101
     total cpu time spent up to now is       28.2 secs

     Computing kpt #:    56  of   101
     total cpu time spent up to now is       28.7 secs

     Computing kpt #:    57  of   101
     total cpu time spent up to now is       29.3 secs

     Computing kpt #:    58  of   101
     total cpu time spent up to now is       29.8 secs

     Computing kpt #:    59  of   101
     total cpu time spent up to now is       30.4 secs

     Computing kpt #:    60  of   101
     total cpu time spent up to now is       30.9 secs

     Computing kpt #:    61  of   101
     total cpu time spent up to now is       31.4 secs

     Computing kpt #:    62  of   101
     total cpu time spent up to now is       32.1 secs

     Computing kpt #:    63  of   101
     total cpu time spent up to now is       32.7 secs

     Computing kpt #:    64  of   101
     total cpu time spent up to now is       33.3 secs

     Computing kpt #:    65  of   101
     total cpu time spent up to now is       33.8 secs

     Computing kpt #:    66  of   101
     total cpu time spent up to now is       34.3 secs

     Computing kpt #:    67  of   101
     total cpu time spent up to now is       34.8 secs

     Computing kpt #:    68  of   101
     total cpu time spent up to now is       35.3 secs

     Computing kpt #:    69  of   101
     total cpu time spent up to now is       35.9 secs

     Computing kpt #:    70  of   101
     total cpu time spent up to now is       36.4 secs

     Computing kpt #:    71  of   101
     total cpu time spent up to now is       36.8 secs

     Computing kpt #:    72  of   101
     total cpu time spent up to now is       37.3 secs

     Computing kpt #:    73  of   101
     total cpu time spent up to now is       37.8 secs

     Computing kpt #:    74  of   101
     total cpu time spent up to now is       38.3 secs

     Computing kpt #:    75  of   101
     total cpu time spent up to now is       38.9 secs

     Computing kpt #:    76  of   101
     total cpu time spent up to now is       39.4 secs

     Computing kpt #:    77  of   101
     total cpu time spent up to now is       39.9 secs

     Computing kpt #:    78  of   101
     total cpu time spent up to now is       40.4 secs

     Computing kpt #:    79  of   101
     total cpu time spent up to now is       40.9 secs

     Computing kpt #:    80  of   101
     total cpu time spent up to now is       41.4 secs

     Computing kpt #:    81  of   101
     total cpu time spent up to now is       41.9 secs

     Computing kpt #:    82  of   101
     total cpu time spent up to now is       42.3 secs

     Computing kpt #:    83  of   101
     total cpu time spent up to now is       42.9 secs

     Computing kpt #:    84  of   101
     total cpu time spent up to now is       43.4 secs

     Computing kpt #:    85  of   101
     total cpu time spent up to now is       43.9 secs

     Computing kpt #:    86  of   101
     total cpu time spent up to now is       44.4 secs

     Computing kpt #:    87  of   101
     total cpu time spent up to now is       45.0 secs

     Computing kpt #:    88  of   101
     total cpu time spent up to now is       45.5 secs

     Computing kpt #:    89  of   101
     total cpu time spent up to now is       46.1 secs

     Computing kpt #:    90  of   101
     total cpu time spent up to now is       46.5 secs

     Computing kpt #:    91  of   101
     total cpu time spent up to now is       47.0 secs

     Computing kpt #:    92  of   101
     total cpu time spent up to now is       47.5 secs

     Computing kpt #:    93  of   101
     total cpu time spent up to now is       48.0 secs

     Computing kpt #:    94  of   101
     total cpu time spent up to now is       48.5 secs

     Computing kpt #:    95  of   101
     total cpu time spent up to now is       49.0 secs

     Computing kpt #:    96  of   101
     total cpu time spent up to now is       49.5 secs

     Computing kpt #:    97  of   101
     total cpu time spent up to now is       50.0 secs

     Computing kpt #:    98  of   101
     total cpu time spent up to now is       50.5 secs

     Computing kpt #:    99  of   101
     total cpu time spent up to now is       51.1 secs

     Computing kpt #:   100  of   101
     total cpu time spent up to now is       51.6 secs

     Computing kpt #:   101  of   101
     total cpu time spent up to now is       52.1 secs

     ethr =  2.75E-06,  avg # of iterations = 28.5

     total cpu time spent up to now is       52.1 secs

     End of band structure calculation

          k = 0.5000 0.2500 0.7500 (  6886 PWs)   bands (ev):

    -3.6827  -3.6808  -3.0138  -3.0117   0.0305   0.0312   0.7321   0.7327
     1.9085   1.9100   2.9260   2.9263   3.1833   3.1833   3.3779   3.3797
     6.1379   6.1390   6.5397   6.5398   6.7688   6.7688   7.2075   7.2075
     7.8994   7.8998   8.2617   8.2629   8.8748   8.8763   9.4286   9.4289
    10.1992  10.1993  10.6953  10.6959  11.2383  11.2385  11.6297  11.6299
    11.8470  11.8478  13.0846  13.0858  13.2567  13.2581  14.4358  14.4358

          k = 0.4750 0.2625 0.7125 (  6880 PWs)   bands (ev):

    -3.6830  -3.5702  -3.0640  -3.0559  -0.0376  -0.0298   0.4975   0.6244
     2.0935   2.1124   3.0625   3.0716   3.0886   3.3336   3.3792   3.5024
     6.1076   6.1857   6.3599   6.4750   6.7327   6.8583   6.9988   7.1423
     7.6732   7.8174   8.5296   8.5407   8.5454   8.6878   9.5296   9.6028
    10.4292  10.4397  10.5027  10.6683  11.0924  11.5138  11.5630  11.6112
    11.6299  11.9726  12.8231  12.8875  13.2848  13.3692  13.9626  14.4350

          k = 0.4500 0.2750 0.6750 (  6892 PWs)   bands (ev):

    -3.6737  -3.4615  -3.1251  -3.0924  -0.0935  -0.0610   0.2881   0.5220
     2.2560   2.3302   2.9851   3.1884   3.2152   3.3876   3.4130   3.6626
     6.1044   6.1217   6.1477   6.3616   6.7734   6.9378   7.0379   7.0649
     7.4685   7.7534   8.1806   8.2253   8.8422   9.1076   9.5212   9.7306
    10.2011  10.6449  10.7201  10.8183  10.9261  11.4042  11.5358  11.5622
    11.7550  12.3864  12.5344  12.6727  13.3563  13.4426  13.5679  14.3848

          k = 0.4250 0.2875 0.6375 (  6892 PWs)   bands (ev):

    -3.6541  -3.3605  -3.1953  -3.1209  -0.1365  -0.0613   0.1099   0.4281
     2.3956   2.5588   2.8855   3.2985   3.3305   3.3916   3.4603   3.7886
     5.9970   6.0154   6.1308   6.2613   6.8245   6.9713   7.0019   7.2001
     7.2814   7.7162   7.8498   7.9429   9.1451   9.4590   9.4837   9.8220
    10.0728  10.6477  10.7815  10.8374  10.9547  11.2977  11.5982  11.7923
    11.9759  12.2905  12.4752  12.7332  13.0008  13.3945  13.7708  14.1353

          k = 0.4000 0.3000 0.6000 (  6892 PWs)   bands (ev):

    -3.6244  -3.2741  -3.2721  -3.1411  -0.1662  -0.0314  -0.0308   0.3448
     2.5103   2.7936   2.7944   3.3870   3.3884   3.3920   3.4895   3.8273
     5.9186   5.9934   6.1864   6.1865   6.8623   6.8635   7.0959   7.1278
     7.2423   7.6313   7.7087   7.7087   9.4415   9.4416   9.5865   9.8833
    10.1391  10.6864  10.6867  10.7438  11.0020  11.3563  11.6589  12.1141
    12.1144  12.1784  12.4282  12.4285  13.2235  13.2236  13.8550  13.9771

          k = 0.3750 0.3125 0.5625 (  6889 PWs)   bands (ev):

    -3.5849  -3.3560  -3.2053  -3.1522  -0.1825  -0.1285   0.0280   0.2737
     2.5921   2.7129   3.0301   3.3755   3.3940   3.4528   3.4999   3.7555
     5.9332   6.0916   6.1349   6.2687   6.7463   6.8747   6.9716   7.0193
     7.2245   7.5403   7.6664   7.7292   9.4041   9.5395   9.7074   9.9191
    10.2204  10.5253  10.7728  10.9519  10.9914  11.3318  11.7453  11.7708
    11.9913  12.3197  12.5015  12.6889  12.9695  13.2812  13.5909  14.0294

          k = 0.3500 0.3250 0.5250 (  6888 PWs)   bands (ev):

    -3.5363  -3.4417  -3.1630  -3.1541  -0.1854  -0.1766   0.1139   0.2158
     2.6230   2.6436   3.2567   3.3560   3.3612   3.4752   3.4955   3.6021
     6.0140   6.0959   6.2912   6.3674   6.6359   6.7275   6.8658   6.8827
     7.3295   7.4415   7.7628   7.7742   9.3783   9.4484   9.8945   9.9355
    10.2584  10.3889  10.9111  10.9882  11.2343  11.3155  11.3516  11.7599
    11.8765  12.2727  12.6227  12.6965  13.1445  13.2338  13.4241  13.9055

          k = 0.3250 0.3375 0.4875 (  6885 PWs)   bands (ev):

    -3.5276  -3.4791  -3.1496  -3.1466  -0.1748  -0.1726   0.1720   0.2243
     2.5816   2.5870   3.3143   3.3308   3.3323   3.4327   3.5000   3.5479
     6.0578   6.0925   6.3806   6.4141   6.6029   6.6401   6.8726   6.8729
     7.3861   7.4424   7.8373   7.8405   9.3285   9.3721   9.9159   9.9276
    10.2799  10.3546  10.9230  10.9395  11.2293  11.2573  11.4191  11.6430
    11.9183  12.1170  12.7288  12.7549  13.1158  13.1455  13.6159  13.8584

          k = 0.3000 0.3500 0.4500 (  6894 PWs)   bands (ev):

    -3.6114  -3.4143  -3.1643  -3.1307  -0.1508  -0.1168   0.1430   0.3565
     2.4669   2.5438   3.0566   3.3016   3.3216   3.4368   3.4642   3.6930
     6.0234   6.1233   6.1493   6.3335   6.7235   6.9303   6.9373   6.9659
     7.3388   7.5975   7.8805   7.9250   9.1873   9.3931   9.6954   9.8718
    10.1729  10.5241  10.8398  10.9087  11.0031  11.2873  11.5397  11.6926
    11.8523  12.4526  12.4993  12.6046  13.2334  13.2898  13.5111  14.1737

          k = 0.2750 0.3625 0.4125 (  6895 PWs)   bands (ev):

    -3.6910  -3.3429  -3.2051  -3.1057  -0.1136  -0.0133   0.1292   0.5079
     2.3021   2.5152   2.7798   3.2704   3.3097   3.3517   3.4430   3.8257
     5.9496   6.0162   6.1247   6.2296   6.8936   7.0195   7.0430   7.2798
     7.3446   7.8296   7.9034   8.0255   9.0374   9.3169   9.4426   9.7525
     9.9772  10.6889  10.7427  10.8780  10.9673  11.2855  11.5224  11.8917
    12.0124  12.2583  12.4272  12.7143  13.0477  13.4542  13.9149  14.1540

          k = 0.2500 0.3750 0.3750 (  6879 PWs)   bands (ev):

    -3.7648  -3.2671  -3.2651  -3.0727  -0.0635   0.1308   0.1314   0.6759
     2.1125   2.5014   2.5022   3.2380   3.2393   3.2693   3.4062   3.8983
     5.8169   6.0620   6.1304   6.1306   7.0820   7.0833   7.1811   7.2254
     7.6802   7.9786   8.1383   8.1384   8.8917   8.8918   9.4706   9.5866
     9.6559  10.5959  10.9662  10.9666  11.0957  11.1357  11.3764  12.1508
    12.1511  12.2712  12.3855  12.3857  13.4242  13.4243  14.1819  14.1824

          k = 0.2250 0.3875 0.3375 (  6891 PWs)   bands (ev):

    -3.8312  -3.3411  -3.1854  -3.0326  -0.0007   0.1489   0.3083   0.8573
     1.9148   2.2312   2.5045   3.0994   3.1829   3.2078   3.3619   3.9033
     5.7638   6.0419   6.1591   6.1661   7.1227   7.1297   7.2790   7.3963
     7.7663   8.2404   8.3065   8.4713   8.4901   8.7865   9.1026   9.4039
     9.6651  10.6456  10.8402  11.0640  11.1014  11.2465  11.3000  12.0164
    12.0530  12.4179  12.4540  12.7269  13.2009  13.6902  14.2795  14.3705

          k = 0.2000 0.4000 0.3000 (  6883 PWs)   bands (ev):

    -3.8892  -3.4244  -3.1028  -2.9866   0.0740   0.1827   0.5100   1.0489
     1.7194   1.9739   2.5244   2.9385   3.0478   3.1790   3.3149   3.8513
     5.7901   5.9659   6.2159   6.2979   7.0735   7.1720   7.4530   7.6075
     7.7505   8.0402   8.4440   8.5379   8.6293   8.7115   8.9948   9.2487
     9.7740  10.5188  10.7650  10.9854  11.1376  11.1389  11.5149  11.9549
    11.9631  12.6559  12.7285  12.7770  13.2629  13.7802  14.2179  14.4254

          k = 0.1750 0.4125 0.2625 (  6880 PWs)   bands (ev):

    -3.9377  -3.5109  -3.0203  -2.9362   0.1600   0.2323   0.7278   1.2460
     1.5329   1.7340   2.5625   2.7622   2.8735   3.1532   3.2688   3.7609
     5.8857   5.9031   6.3000   6.3839   7.1158   7.2180   7.4184   7.7208
     7.8322   7.8981   8.1610   8.4301   8.5825   8.8700   9.3554   9.4085
     9.8863  10.2035  10.6704  10.8720  11.1107  11.1532  11.7387  11.9235
    12.0828  12.4809  12.9520  13.0546  13.6737  13.8165  14.1429  14.1528

          k = 0.1500 0.4250 0.2250 (  6886 PWs)   bands (ev):

    -3.9761  -3.5968  -2.9403  -2.8833   0.2560   0.2972   0.9529   1.3603
     1.4429   1.5153   2.5770   2.6197   2.6743   3.1314   3.2268   3.6503
     5.8533   6.0356   6.3652   6.4077   7.1053   7.2730   7.2967   7.6918
     7.7142   8.0564   8.0637   8.3187   8.7332   8.7347   9.6288   9.8063
     9.9852  10.0422  10.3475  10.8379  11.0908  11.2882  11.9045  11.9607
    12.2363  12.2426  13.2616  13.3950  13.8811  13.9042  14.0698  14.0927

          k = 0.1250 0.4375 0.1875 (  6879 PWs)   bands (ev):

    -4.0039  -3.6790  -2.8657  -2.8303   0.3602   0.3762   1.1766   1.2059
     1.3211   1.6309   2.3895   2.4645   2.6964   3.1143   3.1918   3.5338
     5.8138   6.2251   6.2703   6.5332   6.7689   7.3022   7.3410   7.5767
     7.6692   8.2182   8.2738   8.2936   8.5675   8.8826   9.4427   9.7675
    10.0516  10.4032  10.4705  10.7739  10.9692  11.5629  11.6910  12.1731
    12.2770  12.3826  13.4675  13.6363  13.6816  14.0680  14.0852  14.1744

          k = 0.1000 0.4500 0.1500 (  6879 PWs)   bands (ev):

    -4.0206  -3.7554  -2.7993  -2.7800   0.4670   0.4695   1.0734   1.1549
     1.3898   1.7982   2.2066   2.2570   2.7906   3.1030   3.1670   3.4221
     5.7778   6.1363   6.4400   6.4727   6.6692   6.9403   7.4255   7.6576
     7.9059   8.1327   8.4067   8.5004   8.5159   9.0196   9.1525   9.4158
    10.0594  10.7466  10.7976  10.8957  10.9253  11.4155  11.8807  12.3685
    12.4490  12.5142  13.4790  13.5131  13.6498  13.8376  13.9646  14.4677

          k = 0.0750 0.4625 0.1125 (  6877 PWs)   bands (ev):

    -4.0259  -3.8242  -2.7443  -2.7354   0.5654   0.5784   0.9663   1.0193
     1.5837   1.9288   2.0361   2.0639   2.8966   3.0983   3.1552   3.3232
     5.7301   5.9782   6.2522   6.6445   6.6636   6.8058   7.5299   7.6636
     8.0651   8.2587   8.2610   8.7231   8.7245   8.8671   9.0499   9.1301
     9.9963  10.5627  10.7699  11.1946  11.4034  11.4152  12.2251  12.5384
    12.6280  12.6588  13.2974  13.4683  13.5518  13.6857  13.6876  14.3068

          k = 0.0500 0.4750 0.0750 (  6883 PWs)   bands (ev):

    -4.0198  -3.8840  -2.7033  -2.6999   0.6631   0.6777   0.8877   0.9167
     1.7510   1.8893   1.9000   2.0067   3.0019   3.1017   3.1557   3.2426
     5.6586   5.8118   6.1392   6.4243   6.8690   6.9297   7.6561   7.7020
     8.0185   8.1356   8.6034   8.6172   8.7046   8.9066   8.9360   9.1982
     9.8828  10.2678  10.8224  11.0543  11.9049  11.9067  12.5811  12.6725
    12.7188  12.8770  13.1595  13.3497  13.3906  13.4373  13.6057  14.0335

          k = 0.0250 0.4875 0.0375 (  6887 PWs)   bands (ev):

    -4.0026  -3.9342  -2.6786  -2.6763   0.7465   0.7536   0.8374   0.8466
     1.7837   1.7855   1.8851   2.0225   3.0885   3.1151   3.1577   3.1823
     5.5951   5.6705   6.1242   6.2719   7.0131   7.0229   7.7966   7.7990
     7.9912   8.0321   8.3809   8.4094   8.9520   9.0565   9.1118   9.2102
     9.7618   9.9577  10.8771  10.9742  12.3784  12.3823  12.7603  12.7782
    12.9160  13.0664  13.0951  13.1340  13.1476  13.2416  13.5778  13.7970

          k = 0.0000 0.5000 0.0000 (  6920 PWs)   bands (ev):

    -3.9747  -3.9729  -2.6703  -2.6680   0.8005   0.8005   0.8019   0.8019
     1.7433   1.7441   1.9784   1.9790   3.1400   3.1400   3.1417   3.1417
     5.5918   5.5931   6.1729   6.1738   7.0608   7.0609   7.9316   7.9316
     7.9320   7.9320   8.2689   8.2693   9.1612   9.1612   9.1614   9.1614
     9.7423   9.7424  10.9234  10.9244  12.7942  12.7942  12.7958  12.7958
    12.8129  12.8146  13.1221  13.1221  13.1226  13.1227  13.6187  13.6193

          k = 0.0000 0.4750 0.0000 (  6884 PWs)   bands (ev):

    -4.0410  -3.9042  -2.6706  -2.6684   0.7224   0.7224   0.8835   0.8835
     1.7465   1.7473   1.8382   2.1201   3.0761   3.0761   3.2082   3.2082
     5.5181   5.6694   6.0267   6.3242   7.0207   7.0208   7.7054   7.7055
     8.1618   8.1618   8.3136   8.3140   9.0050   9.0050   9.3186   9.3186
     9.5445   9.9442  10.8361  11.0163  12.7531  12.7531  12.8125  12.8142
    12.8370  12.8370  12.9765  12.9765  13.2754  13.2757  13.3983  13.8441

          k = 0.0000 0.4500 0.0000 (  6888 PWs)   bands (ev):

    -4.1054  -3.8322  -2.6715  -2.6693   0.6471   0.6471   0.9691   0.9691
     1.6988   1.7560   1.7568   2.2621   3.0140   3.0140   3.2780   3.2780
     5.4466   5.7489   5.8852   6.4778   6.9146   6.9148   7.4828   7.4828
     8.3951   8.3951   8.4335   8.4339   8.8501   8.8501   9.3522   9.4768
     9.4768  10.1488  10.7527  11.1131  12.7116  12.7116  12.8113  12.8130
    12.8381  12.8381  12.8787  12.8787  13.1822  13.4351  13.4352  14.0729

          k = 0.0000 0.4250 0.0000 (  6900 PWs)   bands (ev):

    -4.1669  -3.7581  -2.6730  -2.6707   0.5754   0.5754   1.0578   1.0578
     1.5606   1.7717   1.7725   2.4047   2.9549   2.9549   3.3500   3.3500
     5.3782   5.7497   5.8304   6.6321   6.7687   6.7688   7.2642   7.2642
     8.6024   8.6028   8.6316   8.6316   8.6967   8.6967   9.1675   9.6359
     9.6359  10.3555  10.6737  11.2144  12.6708  12.6708  12.7074  12.7074
    12.8093  12.8111  12.9199  12.9199  12.9711  13.6006  13.6006  13.8498

          k = 0.0000 0.4000 0.0000 (  6900 PWs)   bands (ev):

    -4.2255  -3.6822  -2.6750  -2.6728   0.5075   0.5075   1.1494   1.1494
     1.4240   1.7935   1.7943   2.5478   2.8987   2.8987   3.4240   3.4240
     5.3130   5.6207   5.9138   6.6024   6.6025   6.7838   7.0498   7.0498
     8.5451   8.5451   8.8009   8.8013   8.8712   8.8712   8.9935   9.7957
     9.7957  10.5635  10.5993  11.3202  12.5846  12.5846  12.6310  12.6310
    12.7653  12.8066  12.8084  12.9601  12.9601  13.7205  13.7704  13.7704

          k = 0.0000 0.3750 0.0000 (  6884 PWs)   bands (ev):

    -4.2812  -3.6047  -2.6775  -2.6753   0.4434   0.4434   1.2437   1.2438
     1.2892   1.8212   1.8220   2.6911   2.8455   2.8455   3.4998   3.4998
     5.2512   5.4987   5.9987   6.4268   6.4269   6.8400   6.8400   6.9279
     8.3957   8.3957   8.8353   9.0179   9.0183   9.1136   9.1136   9.9561
     9.9561  10.5294  10.7720  11.4303  12.4697  12.4697  12.5653  12.5924
    12.5924  12.8033  12.8051  12.9992  12.9992  13.5912  13.9417  13.9417

          k = 0.0000 0.3500 0.0000 (  6900 PWs)   bands (ev):

    -4.3335  -3.5261  -2.6804  -2.6782   0.3832   0.3832   1.1566   1.3404
     1.3405   1.8545   1.8553   2.7955   2.7955   2.8345   3.5769   3.5769
     5.1929   5.3838   6.0845   6.2483   6.2484   6.6349   6.6350   7.0564
     8.2489   8.2489   8.7008   9.2472   9.2476   9.3587   9.3587  10.1173
    10.1173  10.4640  10.9804  11.5449  12.3626  12.3626  12.3715  12.5552
    12.5553  12.7995  12.8012  13.0367  13.0367  13.4613  14.1091  14.1091

          k = 0.0000 0.3250 0.0000 (  6908 PWs)   bands (ev):

    -4.3825  -3.4467  -2.6837  -2.6815   0.3269   0.3269   1.0267   1.4392
     1.4392   1.8930   1.8938   2.7487   2.7487   2.9778   3.6551   3.6551
     5.1382   5.2764   6.0704   6.0705   6.1708   6.4352   6.4352   7.1570
     8.1052   8.1052   8.6021   9.4852   9.4856   9.6064   9.6064  10.2791
    10.2791  10.4031  11.1881  11.6639  12.1846  12.2634  12.2634  12.5198
    12.5198  12.7952  12.7969  13.0724  13.0724  13.3302  14.2605  14.2605

          k = 0.0000 0.3000 0.0000 (  6884 PWs)   bands (ev):

    -4.4282  -3.3671  -2.6872  -2.6850   0.2747   0.2747   0.8999   1.5396
     1.5396   1.9362   1.9371   2.7052   2.7052   3.1208   3.7339   3.7339
     5.0872   5.1767   5.8956   5.8956   6.2411   6.2412   6.2571   7.2143
     7.9652   7.9652   8.5544   9.7295   9.7299   9.8565   9.8565  10.3467
    10.4417  10.4417  11.3943  11.7874  12.0051  12.1719  12.1719  12.4863
    12.4863  12.7906  12.7923  13.1059  13.1059  13.1970  14.3695  14.3695

          k = 0.0000 0.2750 0.0000 (  6872 PWs)   bands (ev):

    -4.4704  -3.2877  -2.6909  -2.6887   0.2264   0.2264   0.7769   1.6411
     1.6411   1.9837   1.9846   2.6650   2.6650   3.2631   3.8127   3.8127
     5.0401   5.0848   5.7255   5.7255   6.0534   6.0535   6.3426   7.2171
     7.8295   7.8295   8.5689   9.9786   9.9790  10.1087  10.1087  10.2948
    10.6050  10.6050  11.5983  11.8337  11.9153  12.0883  12.0883  12.4548
    12.4548  12.7858  12.7875  13.0609  13.1372  13.1372  14.3937  14.3937

          k = 0.0000 0.2500 0.0000 (  6896 PWs)   bands (ev):

    -4.5092  -3.2094  -2.6947  -2.6924   0.1823   0.1823   0.6584   1.7429
     1.7430   2.0347   2.0356   2.6281   2.6281   3.4042   3.8909   3.8909
     4.9968   5.0008   5.5615   5.5615   5.8726   5.8727   6.4266   7.1670
     7.6988   7.6988   8.6435  10.2309  10.2314  10.2473  10.3630  10.3630
    10.7691  10.7691  11.6712  11.7992  12.0122  12.0122  12.0476  12.4256
    12.4256  12.7809  12.7826  12.9212  13.1659  13.1659  14.3192  14.3195

          k = 0.0000 0.2250 0.0000 (  6892 PWs)   bands (ev):

    -4.5444  -3.1329  -2.6984  -2.6962   0.1423   0.1423   0.5454   1.8444
     1.8444   2.0884   2.0894   2.5947   2.5947   3.5435   3.9677   3.9677
     4.9247   4.9574   5.4049   5.4050   5.6998   5.6998   6.5081   7.0777
     7.5742   7.5742   8.7644  10.2045  10.4854  10.4858  10.6191  10.6191
    10.9340  10.9340  11.5185  11.9437  11.9437  11.9961  12.1840  12.3987
    12.3987  12.7760  12.7774  12.7777  13.1918  13.1918  14.1821  14.1823

          k = 0.0000 0.2000 0.0000 (  6880 PWs)   bands (ev):

    -4.5760  -3.0591  -2.7020  -2.6998   0.1064   0.1064   0.4386   1.9444
     1.9444   2.1438   2.1448   2.5646   2.5646   3.6801   4.0421   4.0421
     4.8566   4.9220   5.2570   5.2572   5.5359   5.5359   6.5862   6.9647
     7.4566   7.4566   8.9157  10.1661  10.7405  10.7409  10.8767  10.8767
    11.0996  11.0996  11.3767  11.8827  11.8827  12.1873  12.3249  12.3744
    12.3744  12.6294  12.7713  12.7730  13.2149  13.2149  14.0163  14.0164

          k = 0.0000 0.1750 0.0000 (  6871 PWs)   bands (ev):

    -4.6039  -2.9891  -2.7055  -2.7032   0.0747   0.0747   0.3394   2.0414
     2.0415   2.1996   2.2007   2.5381   2.5381   3.8128   4.1132   4.1132
     4.7965   4.8907   5.1194   5.1196   5.3823   5.3824   6.6598   6.8403
     7.3472   7.3472   9.0848  10.1322  10.9945  10.9949  11.1356  11.1356
    11.2470  11.2660  11.2660  11.8291  11.8292  12.3527  12.3527  12.3714
    12.4699  12.4776  12.7669  12.7686  13.2349  13.2349  13.8386  13.8386

          k = 0.0000 0.1500 0.0000 (  6875 PWs)   bands (ev):

    -4.6283  -2.9242  -2.7086  -2.7064   0.0471   0.0471   0.2489   2.1339
     2.1339   2.2544   2.2555   2.5150   2.5150   3.9399   4.1795   4.1795
     4.7444   4.8635   4.9935   4.9937   5.2408   5.2408   6.7131   6.7275
     7.2474   7.2474   9.2625  10.1029  11.1305  11.2451  11.2455  11.3953
    11.3953  11.4330  11.4330  11.7829  11.7829  12.3233  12.3337  12.3337
    12.5461  12.6189  12.7629  12.7645  13.2517  13.2517  13.6563  13.6563

          k = 0.0000 0.1250 0.0000 (  6883 PWs)   bands (ev):

    -4.6490  -2.8656  -2.7114  -2.7092   0.0238   0.0238   0.1687   2.2197
     2.2197   2.3064   2.3076   2.4955   2.4955   4.0590   4.2397   4.2397
     4.7004   4.8404   4.8813   4.8816   5.1135   5.1135   6.5897   6.7881
     7.1587   7.1587   9.4414  10.0780  11.0286  11.4889  11.4894  11.6001
    11.6001  11.6553  11.6553  11.7439  11.7439  12.1689  12.3174  12.3175
    12.7084  12.7593  12.7609  12.7718  13.2647  13.2647  13.4735  13.4735

          k = 0.0000 0.1000 0.0000 (  6903 PWs)   bands (ev):

    -4.6659  -2.8148  -2.7138  -2.7116   0.0047   0.0047   0.1001   2.2962
     2.2963   2.3535   2.3548   2.4795   2.4795   4.1670   4.2922   4.2922
     4.6644   4.7848   4.7851   4.8215   5.0029   5.0029   6.4758   6.8402
     7.0829   7.0829   9.6139  10.0577  10.9428  11.7120  11.7120  11.7209
    11.7214  11.7665  11.7665  11.9142  11.9142  12.0190  12.3041  12.3041
    12.7562  12.7579  12.8543  12.9281  13.2732  13.2732  13.2928  13.2928

          k = 0.0000 0.0750 0.0000 (  6903 PWs)   bands (ev):

    -4.6790  -2.7734  -2.7157  -2.7135  -0.0102  -0.0102   0.0448   2.3606
     2.3606   2.3936   2.3949   2.4670   2.4670   4.2597   4.3354   4.3354
     4.6364   4.7064   4.7067   4.8067   4.9121   4.9121   6.3773   6.8824
     7.0215   7.0215   9.7712  10.0419  10.8743  11.6873  11.6873  11.8806
    11.9303  11.9303  11.9327  11.9332  12.1701  12.1701  12.2936  12.2936
    12.7538  12.7554  12.9787  13.0868  13.1172  13.1172  13.2748  13.2749

          k = 0.0000 0.0500 0.0000 (  6903 PWs)   bands (ev):

    -4.6885  -2.7426  -2.7171  -2.7148  -0.0208  -0.0208   0.0041   2.4096
     2.4096   2.4243   2.4256   2.4581   2.4581   4.3319   4.3675   4.3675
     4.6164   4.6482   4.6486   4.7961   4.8442   4.8442   6.3003   6.9136
     6.9763   6.9763   9.9015  10.0306  10.8244  11.6697  11.6697  11.7642
    12.0864  12.0864  12.1109  12.1114  12.2862  12.2862  12.4174  12.4174
    12.7520  12.7537  12.9523  12.9523  13.0751  13.2454  13.2619  13.2619

          k = 0.0000 0.0250 0.0000 (  6911 PWs)   bands (ev):

    -4.6941  -2.7239  -2.7180  -2.7155  -0.0272  -0.0272  -0.0209   2.4404
     2.4404   2.4437   2.4450   2.4528   2.4528   4.3782   4.3874   4.3874
     4.6044   4.6123   4.6128   4.7898   4.8020   4.8020   6.2509   6.9327
     6.9485   6.9485   9.9899  10.0238  10.7940  11.6591  11.6591  11.6844
    12.2192  12.2192  12.2346  12.2352  12.2816  12.2816  12.6380  12.6380
    12.7509  12.7526  12.8142  12.8142  13.1367  13.2134  13.2136  13.3935

          k = 0.0000 0.0000 0.0000 (  6931 PWs)   bands (ev):

    -4.6960  -2.7182  -2.7182  -2.7149  -0.0293  -0.0293  -0.0293   2.4503
     2.4503   2.4503   2.4517   2.4517   2.4517   4.3942   4.3942   4.3942
     4.6000   4.6007   4.6007   4.7877   4.7877   4.7877   6.2339   6.9391
     6.9391   6.9391  10.0216  10.0216  10.7838  11.6556  11.6556  11.6556
    12.2799  12.2799  12.2799  12.2804  12.2804  12.2804  12.7505  12.7505
    12.7505  12.7522  12.7522  12.7522  13.1579  13.1579  13.1579  13.4747

          k = 0.0000 0.0250 0.0250 (  6909 PWs)   bands (ev):

    -4.6922  -2.7244  -2.7226  -2.7162  -0.0251  -0.0188  -0.0188   2.4140
     2.4416   2.4429   2.4461   2.4462   2.4543   4.3500   4.3807   4.3936
     4.6163   4.6168   4.6219   4.8041   4.8041   4.8185   6.2668   6.9410
     6.9431   6.9583   9.9759  10.0089  10.8041  11.6607  11.6627  11.7147
    12.1688  12.1693  12.2203  12.2207  12.2228  12.2504  12.6224  12.6560
    12.7011  12.7018  12.8146  12.8147  13.1945  13.1951  13.2863  13.4490

          k = 0.0000 0.0500 0.0500 (  6905 PWs)   bands (ev):

    -4.6809  -2.7423  -2.7402  -2.7149  -0.0123   0.0121   0.0121   2.3117
     2.4161   2.4175   2.4326   2.4326   2.4642   4.2288   4.3406   4.3918
     4.6624   4.6639   4.6643   4.8526   4.8526   4.9260   6.3497   6.9471
     6.9550   7.0197   9.8557   9.9725  10.8638  11.6758  11.6845  11.8754
    11.8874  11.8884  12.0731  12.0907  12.0911  12.1655  12.3916  12.4489
    12.6269  12.6270  12.9551  12.9552  13.1692  13.1694  13.4781  13.5149

          k = 0.0000 0.0750 0.0750 (  6899 PWs)   bands (ev):

    -4.6621  -2.7709  -2.7688  -2.7126   0.0089   0.0617   0.0617   2.1638
     2.3762   2.3775   2.4127   2.4128   2.4806   4.0545   4.2752   4.3885
     4.6992   4.7409   4.7414   4.9308   4.9308   5.1137   6.4485   6.9583
     6.9748   7.1320   9.6922   9.9167  10.9587  11.5272  11.5285  11.7007
    11.7230  11.8701  11.9386  11.9390  12.0358  12.1066  12.1429  12.2061
    12.5498  12.5503  13.0696  13.0698  13.1246  13.1248  13.5552  13.5557

          k = 0.0000 0.1000 0.1000 (  6917 PWs)   bands (ev):

    -4.6359  -2.8085  -2.8064  -2.7099   0.0387   0.1271   0.1272   1.9895
     2.3248   2.3261   2.3903   2.3904   2.5035   3.8485   4.1865   4.3833
     4.7354   4.8447   4.8452   5.0358   5.0359   5.3592   6.5369   6.9756
     7.0025   7.2965   9.5102   9.8486  11.0818  11.1371  11.1384  11.6412
    11.7350  11.7789  11.7792  11.7821  11.8736  11.8906  11.9526  12.3838
    12.4604  12.4610  12.9486  12.9488  13.3073  13.3075  13.6356  13.6361

          k = 0.0000 0.1250 0.1250 (  6891 PWs)   bands (ev):

    -4.6023  -2.8531  -2.8510  -2.7077   0.0768   0.2050   0.2051   1.8034
     2.2652   2.2664   2.3695   2.3697   2.5328   3.6255   4.0770   4.3757
     4.7761   4.9722   4.9727   5.1642   5.1642   5.6436   6.6081   7.0002
     7.0381   7.4993   9.3248   9.7789  10.7363  10.7376  11.2224  11.4012
    11.6160  11.6163  11.6388  11.6899  11.6971  11.7787  11.8685  12.3530
    12.3536  12.6928  12.8230  12.8232  13.4970  13.4972  13.7115  13.7119

          k = 0.0000 0.1500 0.1500 (  6907 PWs)   bands (ev):

    -4.5615  -2.9027  -2.9007  -2.7067   0.1233   0.2910   0.2912   1.6155
     2.2003   2.2015   2.3550   2.3554   2.5684   3.3946   3.9496   4.3650
     4.8231   5.1206   5.1211   5.3128   5.3129   5.9553   6.6665   7.0332
     7.0817   7.7165   9.1446   9.7221  10.3334  10.3348  11.1579  11.3667
    11.3892  11.4432  11.4507  11.4510  11.4933  11.8309  11.9924  12.2232
    12.2237  12.7015  12.7017  13.0253  13.6898  13.6901  13.7817  13.7822

          k = 0.0000 0.1750 0.1750 (  6891 PWs)   bands (ev):

    -4.5135  -2.9554  -2.9533  -2.7080   0.1782   0.3807   0.3810   1.4329
     2.1329   2.1340   2.3517   2.3522   2.6102   3.1616   3.8072   4.3504
     4.8772   5.2872   5.2877   5.4788   5.4789   6.2871   6.7171   7.0751
     7.1331   7.9205   8.9752   9.6995   9.9333   9.9347  10.9160  11.1430
    11.1930  11.2827  11.2830  11.2903  11.5018  11.8921  12.0674  12.0680
    12.1630  12.5900  12.5901  13.3763  13.8456  13.8461  13.8801  13.8803

          k = 0.0000 0.2000 0.2000 (  6873 PWs)   bands (ev):

    -4.4587  -3.0094  -3.0074  -2.7129   0.2414   0.4691   0.4695   1.2604
     2.0650   2.0662   2.3641   2.3647   2.6581   2.9301   3.6529   4.3310
     4.9386   5.4698   5.4703   5.6599   5.6601   6.6338   6.7624   7.1264
     7.1925   8.0821   8.8204   9.5387   9.5401   9.7375  10.6781  10.9009
    10.9475  11.0860  11.1112  11.1115  11.6226  11.8850  11.8854  11.9619
    12.3819  12.4910  12.4910  13.7432  13.9024  13.9028  14.0553  14.0555

          k = 0.0000 0.2250 0.2250 (  6881 PWs)   bands (ev):

    -4.3970  -3.0632  -3.0612  -2.7228   0.3127   0.5516   0.5521   1.1022
     1.9986   1.9997   2.3965   2.3973   2.7025   2.7119   3.4892   4.3060
     5.0075   5.6664   5.6669   5.8541   5.8544   6.8025   6.9916   7.1873
     7.2598   8.1793   8.6826   9.1519   9.1533   9.8587  10.4461  10.6636
    10.7075  10.8845  10.9351  10.9354  11.6773  11.6777  11.7325  12.0402
    12.4038  12.4038  12.6426  13.9511  13.9515  14.1242  14.1824  14.1827

          k = 0.0000 0.2500 0.2500 (  6889 PWs)   bands (ev):

    -4.3290  -3.1156  -3.1136  -2.7392   0.3921   0.6243   0.6249   0.9614
     1.9348   1.9359   2.4522   2.4531   2.4808   2.7713   3.3188   4.2745
     5.0837   5.8753   5.8758   6.0599   6.0601   6.8355   7.2578   7.3351
     7.3566   8.2122   8.5639   8.7752   8.7766  10.0658  10.2212  10.4313
    10.4735  10.6905  10.7530  10.7534  11.4473  11.4477  11.8376  12.1270
    12.3270  12.3271  12.9365  13.9901  13.9904  14.1966  14.1970  14.4901

          k = 0.0000 0.2750 0.2750 (  6879 PWs)   bands (ev):

    -4.2548  -3.1654  -3.1634  -2.7633   0.4796   0.6843   0.6851   0.8407
     1.8749   1.8760   2.2660   2.5327   2.5338   2.8360   3.1438   4.2360
     5.1672   6.0945   6.0950   6.2757   6.2759   6.8577   7.3377   7.4182
     7.7235   8.2018   8.4110   8.4123   8.4659  10.0046  10.2046  10.2460
    10.3422  10.5092  10.5638  10.5641  11.1980  11.1984  11.9424  12.2217
    12.2592  12.2594  13.2566  14.0146  14.0147  14.0849  14.0853  14.3122

          k = 0.0000 0.3000 0.3000 (  6865 PWs)   bands (ev):

    -4.1747  -3.2118  -3.2099  -2.7967   0.5749   0.7309   0.7317   0.7423
     1.8196   1.8207   2.0596   2.6374   2.6387   2.9059   2.9661   4.1900
     5.2577   6.3212   6.3217   6.5003   6.5006   6.8639   7.4271   7.5092
     8.0629   8.0642   8.0840   8.1744   8.3896   9.7971   9.9837  10.0251
    10.3489  10.3662  10.3665  10.6672  10.9324  10.9328  12.0502  12.1995
    12.1997  12.3241  13.5981  13.9189  13.9193  14.0029  14.0031  14.1851

          k = 0.0000 0.3250 0.3250 (  6867 PWs)   bands (ev):

    -4.0893  -3.2542  -3.2523  -2.8401   0.6677   0.6780   0.7647   0.7656
     1.7696   1.7707   1.8624   2.7635   2.7649   2.7874   2.9805   4.1363
     5.3550   6.5497   6.5501   6.7327   6.7331   6.8489   7.5256   7.6081
     7.7382   7.7395   8.1512   8.3355   8.4224   9.5994   9.7690   9.8113
    10.1596  10.1599  10.2259  10.6538  10.6542  11.0250  12.1474  12.1476
[...]

          k = 0.2625 0.5000 0.4125 (  6894 PWs)   bands (ev):

    -3.4642  -3.4622  -3.2100  -3.2080  -0.0735  -0.0728   0.1924   0.1931
     2.5266   2.5281   2.9936   2.9946   3.4523   3.4524   3.6657   3.6663
     6.2416   6.2417   6.2546   6.2552   6.8440   6.8448   6.9065   6.9066
     7.4278   7.4280   7.7215   7.7228   9.4879   9.4891   9.8781   9.8782
    10.2793  10.2797  10.6801  10.6807  11.2063  11.2066  11.5638  11.5639
    11.8388  11.8398  12.6269  12.6270  13.1684  13.1685  14.0491  14.0498

          k = 0.3000 0.5000 0.4000 (  6886 PWs)   bands (ev):

    -3.4523  -3.4503  -3.1982  -3.1960  -0.1606  -0.1599   0.1051   0.1058
     2.6928   2.6944   3.2047   3.2056   3.4514   3.4516   3.6467   3.6474
     6.1198   6.1204   6.2667   6.2669   6.7642   6.7644   6.8389   6.8395
     7.3352   7.3354   7.6165   7.6178   9.5580   9.5590   9.9343   9.9344
    10.3454  10.3461  10.8671  10.8674  11.3526  11.3527  11.4635  11.4635
    12.1091  12.1102  12.4517  12.4519  13.2812  13.2813  13.7192  13.7203

          k = 0.3375 0.5000 0.3875 (  6898 PWs)   bands (ev):

    -3.4352  -3.4332  -3.1957  -3.1937  -0.2218  -0.2211   0.0284   0.0291
     2.8428   2.8444   3.3849   3.3854   3.4634   3.4637   3.6138   3.6149
     6.0020   6.0027   6.2584   6.2586   6.6854   6.6856   6.8458   6.8463
     7.2627   7.2630   7.5116   7.5128   9.5791   9.5799   9.9242   9.9244
    10.4236  10.4245  11.0768  11.0769  11.3842  11.3843  11.5757  11.5757
    12.2850  12.2852  12.4374  12.4387  13.3085  13.3098  13.3840  13.3840

          k = 0.3750 0.5000 0.3750 (  6876 PWs)   bands (ev):

    -3.4132  -3.4112  -3.2040  -3.2019  -0.2554  -0.2548  -0.0369  -0.0362
     2.9665   2.9682   3.4932   3.4933   3.4967   3.4974   3.5879   3.5897
     5.9282   5.9289   6.2045   6.2048   6.6845   6.6847   6.8511   6.8516
     7.2055   7.2059   7.4068   7.4080   9.5780   9.5787   9.8792   9.8795
    10.5460  10.5470  11.2716  11.2717  11.3603  11.3604  11.7377  11.7377
    12.2273  12.2276  12.6828  12.6842  13.0006  13.0018  13.3824  13.3826

          k = 0.4125 0.5000 0.3625 (  6888 PWs)   bands (ev):

    -3.3864  -3.3845  -3.2233  -3.2212  -0.2606  -0.2600  -0.0902  -0.0896
     3.0568   3.0584   3.4506   3.4511   3.5420   3.5423   3.6457   3.6467
     5.9095   5.9101   6.1324   6.1327   6.7365   6.7367   6.8598   6.8604
     7.1560   7.1563   7.3041   7.3052   9.5910   9.5916   9.8273   9.8276
    10.6963  10.6974  11.2354  11.2354  11.5790  11.5791  11.6956  11.6957
    12.4044  12.4046  12.4053  12.4065  13.1875  13.1876  13.2375  13.2387

          k = 0.4500 0.5000 0.3500 (  6894 PWs)   bands (ev):

    -3.3556  -3.3536  -3.2533  -3.2512  -0.2376  -0.2369  -0.1310  -0.1303
     3.1152   3.1167   3.3448   3.3458   3.6005   3.6006   3.6833   3.6839
     5.9426   5.9431   6.0727   6.0730   6.8110   6.8113   6.8803   6.8810
     7.1141   7.1145   7.2089   7.2099   9.6369   9.6374   9.7842   9.7847
    10.8442  10.8452  11.1555  11.1556  11.5845  11.5846  11.7408  11.7412
    12.1500  12.1506  12.6274  12.6276  12.9590  12.9591  13.4455  13.4461

          k = 0.4875 0.5000 0.3375 (  6896 PWs)   bands (ev):

    -3.3208  -3.3189  -3.2933  -3.2910  -0.1875  -0.1868  -0.1587  -0.1581
     3.1512   3.1526   3.2102   3.2115   3.6517   3.6518   3.6759   3.6762
     6.0110   6.0115   6.0412   6.0416   6.8811   6.8816   6.8984   6.8991
     7.1101   7.1106   7.1386   7.1394   9.7163   9.7169   9.7553   9.7558
    10.9388  10.9395  11.0166  11.0170  11.5312  11.5316  11.5991  11.5998
    12.2819  12.2820  12.4652  12.4653  13.1254  13.1255  13.3024  13.3024

          k = 0.5250 0.5000 0.3250 (  6904 PWs)   bands (ev):

    -3.3411  -3.3391  -3.2826  -3.2804  -0.1731  -0.1724  -0.1121  -0.1114
     3.0530   3.0544   3.1747   3.1758   3.6295   3.6295   3.6804   3.6807
     6.0432   6.0436   6.0948   6.0951   6.8737   6.8741   6.8993   6.9001
     7.1409   7.1412   7.2004   7.2013   9.7343   9.7348   9.8146   9.8151
    10.7819  10.7827  10.9364  10.9368  11.4514  11.4517  11.5907  11.5914
    12.1712  12.1712  12.5388  12.5388  13.0840  13.0841  13.4399  13.4399

          k = 0.5625 0.5000 0.3125 (  6898 PWs)   bands (ev):

    -3.3948  -3.3928  -3.2415  -3.2394  -0.1738  -0.1731  -0.0137  -0.0130
     2.8788   2.8803   3.1915   3.1925   3.5522   3.5523   3.6788   3.6793
     6.0744   6.0749   6.1809   6.1812   6.8205   6.8208   6.8650   6.8657
     7.2223   7.2226   7.3783   7.3794   9.6918   9.6926   9.9015   9.9018
    10.5168  10.5177  10.8901  10.8904  11.3827  11.3828  11.6373  11.6376
    11.9888  11.9895  12.6453  12.6454  13.0279  13.0280  13.6959  13.6964

          k = 0.6000 0.5000 0.3000 (  6886 PWs)   bands (ev):

    -3.4523  -3.4503  -3.1982  -3.1960  -0.1606  -0.1599   0.1051   0.1058
     2.6928   2.6944   3.2047   3.2056   3.4514   3.4516   3.6467   3.6474
     6.1198   6.1204   6.2667   6.2669   6.7642   6.7644   6.8389   6.8395
     7.3352   7.3354   7.6165   7.6178   9.5580   9.5590   9.9343   9.9344
    10.3454  10.3461  10.8671  10.8674  11.3526  11.3527  11.4635  11.4635
    12.1091  12.1102  12.4517  12.4519  13.2812  13.2813  13.7192  13.7203

          k = 0.6375 0.5000 0.2875 (  6886 PWs)   bands (ev):

    -3.5116  -3.5096  -3.1531  -3.1510  -0.1334  -0.1327   0.2418   0.2425
     2.4995   2.5010   3.2151   3.2158   3.3332   3.3334   3.5892   3.5901
     6.1566   6.1575   6.3539   6.3540   6.7160   6.7161   6.8566   6.8569
     7.4613   7.4616   7.8972   7.8986   9.2962   9.2974   9.8868   9.8868
    10.3272  10.3278  10.8250  10.8252  11.3305  11.3307  11.3383  11.3383
    12.2083  12.2085  12.3361  12.3373  13.5930  13.5931  13.6022  13.6035

          k = 0.6750 0.5000 0.2750 (  6882 PWs)   bands (ev):

    -3.5707  -3.5688  -3.1070  -3.1048  -0.0923  -0.0916   0.3938   0.3944
     2.3024   2.3040   3.2030   3.2032   3.2210   3.2214   3.5150   3.5162
     6.1686   6.1696   6.4411   6.4412   6.6855   6.6855   6.9319   6.9320
     7.5969   7.5972   8.2073   8.2088   8.9647   8.9659   9.7721   9.7723
    10.4109  10.4115  10.6526  10.6527  11.3264  11.3264  11.4102  11.4107
    11.9714  11.9716  12.5898  12.5911  13.4586  13.4599  13.9067  13.9067

          k = 0.7125 0.5000 0.2625 (  6884 PWs)   bands (ev):

    -3.6282  -3.6263  -3.0604  -3.0582  -0.0376  -0.0368   0.5582   0.5588
     2.1045   2.1061   3.0658   3.0661   3.2158   3.2160   3.4372   3.4388
     6.1581   6.1591   6.5116   6.5117   6.6938   6.6939   7.0560   7.0560
     7.7423   7.7426   8.5367   8.5383   8.6126   8.6139   9.6147   9.6149
    10.4213  10.4214  10.5458  10.5463  11.3003  11.3004  11.6129  11.6135
    11.7657  11.7659  12.8530  12.8543  13.3236  13.3250  14.1985  14.1986

          k = 0.7500 0.5000 0.2500 (  6886 PWs)   bands (ev):

    -3.6827  -3.6808  -3.0139  -3.0117   0.0305   0.0312   0.7321   0.7327
     1.9084   1.9100   2.9260   2.9263   3.1833   3.1833   3.3779   3.3797
     6.1379   6.1390   6.5397   6.5398   6.7688   6.7688   7.2075   7.2075
     7.8994   7.8998   8.2617   8.2629   8.8748   8.8763   9.4286   9.4289
    10.1991  10.1992  10.6953  10.6959  11.2383  11.2385  11.6297  11.6299
    11.8470  11.8478  13.0846  13.0858  13.2567  13.2581  14.4357  14.4357

          k = 0.7500 0.4937 0.2562 (  6889 PWs)   bands (ev):

    -3.6898  -3.6603  -3.0198  -3.0176   0.0216   0.0224   0.6935   0.7273
     1.9323   1.9343   2.9436   2.9443   3.1552   3.2213   3.3712   3.3993
     6.1254   6.1566   6.5219   6.5347   6.7599   6.7732   7.1645   7.2117
     7.8606   7.8985   8.2880   8.3239   8.8321   8.8338   9.4469   9.4523
    10.2268  10.2320  10.6456  10.7093  11.1952  11.3002  11.5933  11.6933
    11.8177  11.8191  13.0519  13.0603  13.2590  13.2689  14.3519  14.4658

          k = 0.7500 0.4875 0.2625 (  6890 PWs)   bands (ev):

    -3.6974  -3.6389  -3.0262  -3.0233   0.0130   0.0150   0.6554   0.7224
     1.9543   1.9593   2.9611   2.9637   3.1248   3.2550   3.3654   3.4229
     6.1135   6.1728   6.4799   6.5227   6.7589   6.8040   7.1238   7.2153
     7.8227   7.8981   8.3145   8.3864   8.7881   8.7911   9.4525   9.4736
    10.2579  10.2777  10.5946  10.7213  11.1509  11.3605  11.5610  11.7622
    11.7867  11.7914  13.0002  13.0253  13.2718  13.3030  14.2627  14.4921

          k = 0.7500 0.4812 0.2687 (  6883 PWs)   bands (ev):

    -3.7046  -3.6174  -3.0336  -3.0288   0.0049   0.0091   0.6181   0.7177
     1.9745   1.9851   2.9784   2.9841   3.0927   3.2835   3.3606   3.4505
     6.1028   6.1867   6.4271   6.5048   6.7648   6.8478   7.0862   7.2183
     7.7858   7.8986   8.3417   8.4495   8.7429   8.7488   9.4473   9.4923
    10.2924  10.3343  10.5430  10.7324  11.1057  11.4184  11.5328  11.7547
    11.7651  11.8364  12.9419  12.9850  13.2912  13.3474  14.1690  14.5149

          k = 0.7500 0.4750 0.2750 (  6888 PWs)   bands (ev):

    -3.7114  -3.5959  -3.0419  -3.0338  -0.0028   0.0047   0.5816   0.7132
     1.9929   2.0116   2.9957   3.0055   3.0595   3.3068   3.3563   3.4820
     6.0933   6.1977   6.3707   6.4829   6.7757   6.8974   7.0528   7.2204
     7.7496   7.9001   8.3695   8.5133   8.6965   8.7070   9.4333   9.5087
    10.3301  10.3991  10.4908  10.7432  11.0599  11.4735  11.5083  11.7220
    11.7406  11.9156  12.8816  12.9420  13.3142  13.3973  14.0716  14.5343

          k = 0.7500 0.4687 0.2812 (  6882 PWs)   bands (ev):

    -3.7178  -3.5743  -3.0508  -3.0384  -0.0101   0.0017   0.5459   0.7089
     2.0097   2.0386   3.0129   3.0254   3.0279   3.3254   3.3522   3.5166
     6.0851   6.2053   6.3138   6.4585   6.7900   6.9500   7.0242   7.2215
     7.7140   7.9028   8.3981   8.5775   8.6492   8.6656   9.4127   9.5227
    10.3708  10.4382  10.4693  10.7540  11.0139  11.4871  11.5261  11.6888
    11.7184  11.9991  12.8214  12.8976  13.3394  13.4506  13.9712  14.5509

          k = 0.7500 0.4625 0.2875 (  6888 PWs)   bands (ev):

    -3.7238  -3.5527  -3.0605  -3.0428  -0.0169   0.0001   0.5111   0.7048
     2.0249   2.0663   2.9909   3.0300   3.0505   3.3403   3.3481   3.5532
     6.0782   6.2089   6.2579   6.4328   6.8066   7.0014   7.0043   7.2215
     7.6788   7.9068   8.4272   8.6011   8.6249   8.6421   9.3872   9.5347
    10.3853  10.4140  10.5425  10.7652  10.9683  11.4689  11.5765  11.6554
    11.6993  12.0862  12.7621  12.8525  13.3660  13.5063  13.8685  14.5642

          k = 0.7500 0.4562 0.2937 (  6893 PWs)   bands (ev):

    -3.7294  -3.5312  -3.0710  -3.0469  -0.0233   0.0001   0.4772   0.7010
     2.0386   2.0945   2.9560   3.0469   3.0735   3.3436   3.3524   3.5907
     6.0727   6.2037   6.2084   6.4066   6.8248   6.9848   7.0596   7.2203
     7.6440   7.9123   8.4570   8.5523   8.5847   8.7069   9.3582   9.5448
    10.3319  10.4594  10.6165  10.7768  10.9234  11.4531  11.6216  11.6250
    11.6842  12.1762  12.7042  12.8071  13.3933  13.5638  13.7642  14.5753

          k = 0.7500 0.4500 0.3000 (  6892 PWs)   bands (ev):

    -3.7346  -3.5097  -3.0822  -3.0506  -0.0293   0.0015   0.4443   0.6974
     2.0508   2.1232   2.9208   3.0636   3.0965   3.3389   3.3624   3.6283
     6.0685   6.1518   6.2036   6.3804   6.8440   6.9747   7.1154   7.2177
     7.6095   7.9194   8.4874   8.5028   8.5452   8.7719   9.3266   9.5533
    10.2781  10.5068  10.6890  10.7889  10.8799  11.4395  11.5876  11.6719
    11.6744  12.2682  12.6482  12.7616  13.4211  13.6226  13.6590  14.5846

          k = 0.7500 0.4437 0.3062 (  6890 PWs)   bands (ev):

    -3.7394  -3.4884  -3.0942  -3.0542  -0.0347   0.0044   0.4123   0.6940
     2.0617   2.1524   2.8855   3.0801   3.1193   3.3337   3.3707   3.6652
     6.0657   6.1025   6.1949   6.3545   6.8638   6.9710   7.1715   7.2138
     7.5751   7.9282   8.4528   8.5064   8.5183   8.8371   9.2932   9.5603
    10.2238  10.5556  10.7580  10.8017  10.8383  11.4278  11.5533  11.6712
    11.7177  12.3615  12.5946  12.7161  13.4487  13.5532  13.6824  14.5630

          k = 0.7500 0.4375 0.3125 (  6893 PWs)   bands (ev):

    -3.7438  -3.4671  -3.1067  -3.0574  -0.0397   0.0087   0.3813   0.6909
     2.0713   2.1820   2.8500   3.0963   3.1415   3.3280   3.3777   3.7008
     6.0562   6.0644   6.1828   6.3291   6.8841   6.9735   7.2084   7.2278
     7.5408   7.9388   8.4023   8.4684   8.5498   8.9024   9.2584   9.5661
    10.1690  10.6058  10.7989  10.8151  10.8210  11.4177  11.5186  11.6765
    11.7626  12.4552  12.5437  12.6708  13.4479  13.4756  13.7429  14.5129

          k = 0.7500 0.4312 0.3187 (  6888 PWs)   bands (ev):

    -3.7478  -3.4460  -3.1200  -3.0603  -0.0442   0.0146   0.3513   0.6881
     2.0797   2.2122   2.8146   3.1123   3.1629   3.3218   3.3837   3.7347
     6.0133   6.0645   6.1682   6.3045   6.9047   6.9815   7.2015   7.2839
     7.5067   7.9512   8.3514   8.4311   8.5819   8.9676   9.2227   9.5709
    10.1137  10.6568  10.7622  10.8291  10.8758  11.4091  11.4835  11.6921
    11.8068  12.4960  12.5481  12.6258  13.3442  13.5015  13.8037  14.4649

          k = 0.7500 0.4250 0.3250 (  6887 PWs)   bands (ev):

    -3.7513  -3.4250  -3.1339  -3.0629  -0.0482   0.0219   0.3223   0.6856
     2.0870   2.2428   2.7792   3.1279   3.1831   3.3150   3.3888   3.7663
     5.9739   6.0660   6.1519   6.2808   6.9253   6.9945   7.1932   7.3398
     7.4726   7.9653   8.3004   8.3947   8.6145   9.0327   9.1864   9.5748
    10.0577  10.7085  10.7286  10.8437  10.9207  11.4017  11.4476  11.7195
    11.8504  12.4518  12.5812  12.6379  13.2440  13.5253  13.8646  14.4191

          k = 0.7500 0.4187 0.3312 (  6884 PWs)   bands (ev):

    -3.7545  -3.4042  -3.1484  -3.0652  -0.0518   0.0306   0.2944   0.6833
     2.0933   2.2739   2.7439   3.1432   3.2018   3.3076   3.3931   3.7954
     5.9384   6.0690   6.1350   6.2579   6.9460   7.0116   7.1835   7.3951
     7.4386   7.9812   8.2494   8.3591   8.6476   9.0976   9.1497   9.5780
    10.0011  10.6983  10.7606  10.8588  10.9546  11.3954  11.4109  11.7594
    11.8935  12.4116  12.5371  12.7194  13.1527  13.5461  13.9251  14.3756

          k = 0.7500 0.4125 0.3375 (  6883 PWs)   bands (ev):

    -3.7572  -3.3836  -3.1636  -3.0672  -0.0549   0.0408   0.2675   0.6814
     2.0985   2.3053   2.7088   3.1582   3.2187   3.2996   3.3968   3.8214
     5.9070   6.0735   6.1183   6.2362   6.9665   7.0322   7.1725   7.4047
     7.4495   7.9989   8.1987   8.3245   8.6812   9.1127   9.1619   9.5805
     9.9440  10.6716  10.8128  10.8743  10.9776  11.3731  11.3901  11.8113
    11.9361  12.3757  12.4938  12.7772  13.0854  13.5623  13.9848  14.3345

          k = 0.7500 0.4062 0.3437 (  6885 PWs)   bands (ev):

    -3.7595  -3.3632  -3.1794  -3.0689  -0.0575   0.0524   0.2418   0.6797
     2.1029   2.3371   2.6737   3.1727   3.2335   3.2909   3.3997   3.8442
     5.8800   6.0794   6.1027   6.2155   6.9869   7.0557   7.1602   7.3710
     7.5024   8.0183   8.1490   8.2908   8.7152   9.0756   9.2256   9.5825
     9.8865  10.6488  10.8647  10.8901  10.9908  11.3342  11.3858  11.8735
    11.9782  12.3447  12.4517  12.7785  13.0747  13.5715  14.0426  14.2963

          k = 0.7500 0.4000 0.3500 (  6891 PWs)   bands (ev):

    -3.7614  -3.3431  -3.1957  -3.0703  -0.0597   0.0654   0.2173   0.6783
     2.1064   2.3694   2.6389   3.1869   3.2461   3.2817   3.4021   3.8632
     5.8576   6.0867   6.0889   6.1960   7.0069   7.0814   7.1467   7.3375
     7.5531   8.0393   8.1009   8.2581   8.7497   9.0386   9.2881   9.5841
     9.8292  10.6299  10.9061  10.9162  10.9958  11.2939  11.3823  11.9435
    12.0195  12.3187  12.4116  12.7200  13.1235  13.5711  14.0975  14.2616

          k = 0.7500 0.3937 0.3562 (  6892 PWs)   bands (ev):

    -3.7629  -3.3234  -3.2126  -3.0714  -0.0613   0.0798   0.1939   0.6773
     2.1091   2.4020   2.6042   3.2006   3.2561   3.2718   3.4039   3.8784
     5.8399   6.0775   6.0956   6.1777   7.0266   7.1088   7.1321   7.3045
     7.6000   8.0561   8.0619   8.2264   8.7847   9.0016   9.3484   9.5852
     9.7729  10.6151  10.9220  10.9670  10.9944  11.2523  11.3797  12.0174
    12.0597  12.2981  12.3753  12.6364  13.1971  13.5577  14.1475  14.2312

          k = 0.7500 0.3875 0.3625 (  6891 PWs)   bands (ev):

    -3.7639  -3.3039  -3.2300  -3.0721  -0.0625   0.0956   0.1717   0.6765
     2.1110   2.4349   2.5698   3.2138   3.2613   3.2634   3.4052   3.8894
     5.8272   6.0690   6.1058   6.1607   7.0459   7.1165   7.1371   7.2723
     7.6404   8.0172   8.0859   8.1959   8.8200   8.9647   9.4046   9.5860
     9.7197  10.6045  10.9376  10.9882  11.0165  11.2094  11.3778  12.0883
    12.0976  12.2832  12.3482  12.5466  13.2764  13.5290  14.2063  14.2109

          k = 0.7500 0.3812 0.3687 (  6886 PWs)   bands (ev):

    -3.7646  -3.2848  -3.2478  -3.0726  -0.0632   0.1127   0.1508   0.6760
     2.1121   2.4682   2.5357   3.2265   3.2503   3.2678   3.4060   3.8961
     5.8195   6.0638   6.1175   6.1449   7.0646   7.1000   7.1646   7.2426
     7.6693   7.9892   8.1114   8.1665   8.8557   8.9281   9.4505   9.5864
     9.6755  10.5981  10.9526  10.9785  11.0637  11.1663  11.3767  12.1307
    12.1398  12.2742  12.3451  12.4595  13.3538  13.4838  14.1883  14.1893

          k = 0.7500 0.3750 0.3750 (  6879 PWs)   bands (ev):

    -3.7648  -3.2671  -3.2651  -3.0728  -0.0635   0.1308   0.1314   0.6759
     2.1125   2.5014   2.5022   3.2380   3.2393   3.2693   3.4062   3.8983
     5.8169   6.0620   6.1304   6.1306   7.0820   7.0833   7.1811   7.2254
     7.6802   7.9786   8.1383   8.1384   8.8917   8.8918   9.4706   9.5866
     9.6559  10.5959  10.9662  10.9666  11.0957  11.1357  11.3764  12.1508
    12.1511  12.2712  12.3855  12.3857  13.4242  13.4243  14.1819  14.1824

     Writing all to output data dir ./work/pwscf.save/

     init_run     :      0.30s CPU      0.31s WALL (       1 calls)
     electrons    :     48.59s CPU     51.56s WALL (       1 calls)

     Called by init_run:
     wfcinit      :      0.00s CPU      0.00s WALL (       1 calls)
     wfcinit:atom :      0.03s CPU      0.03s WALL (     101 calls)
     wfcinit:wfcr :      1.90s CPU      2.09s WALL (     101 calls)
     potinit      :      0.01s CPU      0.02s WALL (       1 calls)
     hinit0       :      0.26s CPU      0.26s WALL (       1 calls)

     Called by electrons:
     c_bands      :     48.59s CPU     51.55s WALL (       1 calls)
     v_of_rho     :      0.00s CPU      0.00s WALL (       1 calls)
     v_h          :      0.00s CPU      0.00s WALL (       1 calls)
     v_xc         :      0.00s CPU      0.00s WALL (       1 calls)
     newd         :      0.01s CPU      0.01s WALL (       1 calls)

     Called by c_bands:
     init_us_2    :      0.02s CPU      0.03s WALL (     101 calls)
     init_us_2:cp :      0.02s CPU      0.02s WALL (     101 calls)
     cegterg      :     46.33s CPU     48.69s WALL (     202 calls)

     Called by sum_band:

     Called by *egterg:
     cdiaghg      :      6.36s CPU      6.58s WALL (    2982 calls)
     cegterg:over :      4.76s CPU      5.01s WALL (    2881 calls)
     cegterg:upda :      1.52s CPU      1.55s WALL (    2881 calls)
     cegterg:last :      4.12s CPU      4.21s WALL (    1800 calls)
     h_psi        :     26.06s CPU     27.81s WALL (    3184 calls)
     s_psi        :      1.48s CPU      1.59s WALL (    3184 calls)
     g_psi        :      0.22s CPU      0.23s WALL (    2881 calls)

     Called by h_psi:
     h_psi:calbec :      2.67s CPU      2.90s WALL (    3184 calls)
     vloc_psi     :     21.68s CPU     23.08s WALL (    3184 calls)
     add_vuspsi   :      1.58s CPU      1.71s WALL (    3184 calls)

     General routines
     calbec       :      2.67s CPU      2.90s WALL (    3184 calls)
     fft          :      0.24s CPU      0.24s WALL (      12 calls)
     fftw         :     20.12s CPU     21.42s WALL (  167424 calls)

     Parallel routines

     PWSCF        :     49.48s CPU     54.82s WALL


   This run was terminated on:  16:43:24  25Sep2023            

=------------------------------------------------------------------------------=
   JOB DONE.
=------------------------------------------------------------------------------=
