
     Program BANDS v.7.1 starts on 25Sep2023 at 16:52: 4 

     This program is part of the open-source Quantum ESPRESSO suite
     for quantum simulation of materials; please cite
         "P. Giannozzi et al., J. Phys.:Condens. Matter 21 395502 (2009);
         "P. Giannozzi et al., J. Phys.:Condens. Matter 29 465901 (2017);
         "P. Giannozzi et al., J. Chem. Phys. 152 154105 (2020);
          URL http://www.quantum-espresso.org", 
     in publications or presentations arising from this work. More details at
     http://www.quantum-espresso.org/quote

     Parallel version (MPI & OpenMP), running on      10 processor cores
     Number of MPI processes:                10
     Threads/MPI process:                     1

     MPI processes distributed on     1 nodes
     R & G space division:  proc/nbgrp/npool/nimage =      10
     11152 MiB available memory on the printing compute node when the environment starts


     Reading xml data from directory:

     ./work/pwscf.save/
     file Bi.pbe-dn-rrkjus_psl.0.2.2.UPF: wavefunction(s)  5D renormalized

     IMPORTANT: XC functional enforced from input :
     Exchange-correlation= PBE
                           (   1   4   3   4   0   0   0)
     Any further DFT definition will be discarded
     Please, verify this is what you really want


     Parallelization info
     --------------------
     sticks:   dense  smooth     PW     G-vecs:    dense   smooth      PW
     Min         241      67     19                15263     2261     353
     Max         243      68     20                15266     2268     360
     Sum        2419     673    199               152645    22645    3585

     Using Slab Decomposition

     Reading collected, re-writing distributed wavefunctions
     high-symmetry point:  0.0000 0.0000 0.0000   x coordinate   0.0000
     high-symmetry point:  0.5774 0.0000 0.0000   x coordinate   0.5774
     high-symmetry point:  0.5768 0.3330 0.0000   x coordinate   0.9104
     high-symmetry point:  0.0000 0.0000 0.0000   x coordinate   1.5764
     high-symmetry point:  0.0000 0.0000 0.3170   x coordinate   1.8933

     Plottable bands (eV) written to file bands.out.gnu
     Bands written to file bands.out

 **************************************************************************

                    xk=(   0.00000,   0.00000,   0.00000  )

     point group D_3d (-3m) 
     there are  6 classes
     the character table:

       E     2C3   3C2'  i     2S6   3s_d 
A_1g   1.00  1.00  1.00  1.00  1.00  1.00
A_2g   1.00  1.00 -1.00  1.00  1.00 -1.00
E_g    2.00 -1.00  0.00  2.00 -1.00  0.00
A_1u   1.00  1.00  1.00 -1.00 -1.00 -1.00
A_2u   1.00  1.00 -1.00 -1.00 -1.00  1.00
E_u    2.00 -1.00  0.00 -2.00  1.00  0.00

     the symmetry operations in each class and the name of the first element:

     E        1
                                                                 
     2C3      3    4
                                                                 
     3C2'     2    6    5
                                                                 
     i        7
                                                                 
     2S6      9   10
                                                                 
     3s_d     8   12   11
                                                                 

     Band symmetry, D_3d (-3m)  point group:

     e(  1 -  2) =    -15.73903  eV     2   --> E_u  L_3'      
     e(  3 -  4) =    -15.73747  eV     2   --> E_g  L_3       
     e(  5 -  5) =    -15.72219  eV     1   --> A_2u L_2'      
     e(  6 -  6) =    -15.72135  eV     1   --> A_1g L_1       
     e(  7 -  8) =    -15.70904  eV     2   --> E_g  L_3       
     e(  9 - 10) =    -15.69824  eV     2   --> E_u  L_3'      
     e( 11 - 11) =     -4.92044  eV     1   --> A_1g L_1       
     e( 12 - 12) =     -4.05844  eV     1   --> A_2u L_2'      
     e( 13 - 13) =      1.70524  eV     1   --> A_1g L_1       
     e( 14 - 15) =      5.48234  eV     2   --> E_g  L_3       
     e( 16 - 16) =      6.17186  eV     1   --> A_1g L_1       
     e( 17 - 18) =      6.17675  eV     2   --> E_u  L_3'      
     e( 19 - 19) =      6.42616  eV     1   --> A_2u L_2'      
     e( 20 - 20) =      7.21933  eV     1   --> A_2u L_2'      
     e( 21 - 22) =      9.51674  eV     2   --> E_u  L_3'      
     e( 23 - 23) =     10.22929  eV     1   --> A_1g L_1       
     e( 24 - 25) =     10.44427  eV     2   --> E_g  L_3       
     e( 26 - 26) =     10.81548  eV     1   --> A_1g L_1       
     e( 27 - 27) =     11.57062  eV     1   --> A_2u L_2'      
     e( 28 - 28) =     11.57848  eV     1   -->   ?

 **************************************************************************

 **************************************************************************

                    xk=(   0.02887,   0.00000,   0.00000  )

     point group C_s (m)    
     there are  2 classes
     the character table:

       E     s    
A'     1.00  1.00
A''    1.00 -1.00

     the symmetry operations in each class and the name of the first element:

     E        1
                                                                 
     s        2
                                                                 

     Band symmetry, C_s (m)     point group:

     e(  1 -  2) =    -15.73906  eV     2   --> A'             
     e(  1 -  2) =    -15.73906  eV     2   --> A''            
     e(  3 -  4) =    -15.73745  eV     2   --> A'             
     e(  3 -  4) =    -15.73745  eV     2   --> A''            
     e(  5 -  5) =    -15.72218  eV     1   --> A'             
     e(  6 -  6) =    -15.72133  eV     1   --> A'             
     e(  7 -  8) =    -15.70903  eV     2   --> A'             
     e(  7 -  8) =    -15.70903  eV     2   --> A''            
     e(  9 - 10) =    -15.69827  eV     2   --> A'             
     e(  9 - 10) =    -15.69827  eV     2   --> A''            
     e( 11 - 11) =     -4.91724  eV     1   --> A'             
     e( 12 - 12) =     -4.05689  eV     1   --> A'             
     e( 13 - 13) =      1.71052  eV     1   --> A'             
     e( 14 - 14) =      5.41470  eV     1   --> A'             
     e( 15 - 15) =      5.46688  eV     1   --> A''            
     e( 16 - 16) =      5.88991  eV     1   --> A'             
     e( 17 - 17) =      6.18011  eV     1   --> A''            
     e( 18 - 18) =      6.43479  eV     1   --> A'             
     e( 19 - 19) =      6.46627  eV     1   --> A'             
     e( 20 - 20) =      7.26552  eV     1   --> A'             
     e( 21 - 21) =      9.45622  eV     1   --> A'             
     e( 22 - 22) =      9.52468  eV     1   --> A''            
     e( 23 - 23) =     10.25610  eV     1   --> A'             
     e( 24 - 24) =     10.39163  eV     1   --> A'             
     e( 25 - 25) =     10.44501  eV     1   --> A''            
     e( 26 - 26) =     10.86250  eV     1   --> A'             
     e( 27 - 27) =     11.44787  eV     1   --> A'             
     e( 28 - 28) =     11.50447  eV     1   --> A''            
     e( 29 - 29) =     11.64226  eV     1   --> A'             
     e( 30 - 30) =     11.73048  eV     1   --> A'             

 **************************************************************************

 **************************************************************************

                    xk=(   0.05774,   0.00000,   0.00000  )

     Band symmetry, C_s (m)     point group:

     e(  1 -  1) =    -15.73916  eV     1   --> A'             
     e(  2 -  2) =    -15.73897  eV     1   --> A''            
     e(  3 -  4) =    -15.73742  eV     2   --> A'             
     e(  3 -  4) =    -15.73742  eV     2   --> A''            
     e(  5 -  5) =    -15.72212  eV     1   --> A'             
     e(  6 -  6) =    -15.72127  eV     1   --> A'             
     e(  7 -  8) =    -15.70898  eV     2   --> A'             
     e(  7 -  8) =    -15.70898  eV     2   --> A''            
     e(  9 -  9) =    -15.69833  eV     1   --> A'             
     e( 10 - 10) =    -15.69818  eV     1   --> A''            
     e( 11 - 11) =     -4.90760  eV     1   --> A'             
     e( 12 - 12) =     -4.05227  eV     1   --> A'             
     e( 13 - 13) =      1.72639  eV     1   --> A'             
     e( 14 - 14) =      5.23542  eV     1   --> A'             
     e( 15 - 15) =      5.42318  eV     1   --> A''            
     e( 16 - 16) =      5.62215  eV     1   --> A'             
     e( 17 - 17) =      6.18788  eV     1   --> A''            
     e( 18 - 18) =      6.44769  eV     1   --> A'             
     e( 19 - 19) =      6.75185  eV     1   --> A'             
     e( 20 - 20) =      7.39539  eV     1   --> A'             
     e( 21 - 21) =      9.31239  eV     1   --> A'             
     e( 22 - 22) =      9.54858  eV     1   --> A''            
     e( 23 - 23) =     10.26069  eV     1   --> A'             
     e( 24 - 24) =     10.31723  eV     1   --> A'             
     e( 25 - 25) =     10.44358  eV     1   --> A''            
     e( 26 - 26) =     10.96175  eV     1   --> A'             
     e( 27 - 27) =     11.28273  eV     1   --> A'             
     e( 28 - 28) =     11.43940  eV     1   --> A''            
     e( 29 - 29) =     11.71526  eV     1   --> A'             
     e( 30 - 30) =     11.84037  eV     1   --> A'             

 **************************************************************************

 **************************************************************************

                    xk=(   0.08660,   0.00000,   0.00000  )

     Band symmetry, C_s (m)     point group:

     e(  1 -  1) =    -15.73931  eV     1   --> A'             
     e(  2 -  2) =    -15.73891  eV     1   --> A''            
     e(  3 -  3) =    -15.73737  eV     1   --> A'             
     e(  4 -  4) =    -15.73717  eV     1   --> A''            
     e(  5 -  5) =    -15.72203  eV     1   --> A'             
     e(  6 -  6) =    -15.72118  eV     1   --> A'             
     e(  7 -  8) =    -15.70891  eV     2   --> A'             
     e(  7 -  8) =    -15.70891  eV     2   --> A''            
     e(  9 -  9) =    -15.69843  eV     1   --> A'             
     e( 10 - 10) =    -15.69811  eV     1   --> A''            
     e( 11 - 11) =     -4.89164  eV     1   --> A'             
     e( 12 - 12) =     -4.04472  eV     1   --> A'             
     e( 13 - 13) =      1.75278  eV     1   --> A'             
     e( 14 - 14) =      4.98977  eV     1   --> A'             
     e( 15 - 15) =      5.35751  eV     1   --> A''            
     e( 16 - 16) =      5.37108  eV     1   --> A'             
     e( 17 - 17) =      6.19480  eV     1   --> A''            
     e( 18 - 18) =      6.44351  eV     1   --> A'             
     e( 19 - 19) =      7.02352  eV     1   --> A'             
     e( 20 - 20) =      7.58182  eV     1   --> A'             
     e( 21 - 21) =      9.14397  eV     1   --> A'             
     e( 22 - 22) =      9.58798  eV     1   --> A''            
     e( 23 - 23) =     10.10146  eV     1   --> A'             
     e( 24 - 24) =     10.38904  eV     1   --> A'             
     e( 25 - 25) =     10.43287  eV     1   --> A''            
     e( 26 - 26) =     10.90609  eV     1   --> A'             
     e( 27 - 27) =     11.31291  eV     1   --> A'             
     e( 28 - 28) =     11.42831  eV     1   --> A''            
     e( 29 - 29) =     11.68673  eV     1   --> A'             
     e( 30 - 30) =     12.08224  eV     1   --> A'             

 **************************************************************************

 **************************************************************************

                    xk=(   0.11547,   0.00000,   0.00000  )

     Band symmetry, C_s (m)     point group:

     e(  1 -  1) =    -15.73951  eV     1   --> A'             
     e(  2 -  2) =    -15.73882  eV     1   --> A''            
     e(  3 -  3) =    -15.73731  eV     1   --> A'             
     e(  4 -  4) =    -15.73694  eV     1   --> A''            
     e(  5 -  5) =    -15.72192  eV     1   --> A'             
     e(  6 -  6) =    -15.72105  eV     1   --> A'             
     e(  7 -  8) =    -15.70881  eV     2   --> A'             
     e(  7 -  8) =    -15.70881  eV     2   --> A''            
     e(  9 -  9) =    -15.69857  eV     1   --> A'             
     e( 10 - 10) =    -15.69800  eV     1   --> A''            
     e( 11 - 11) =     -4.86954  eV     1   --> A'             
     e( 12 - 12) =     -4.03448  eV     1   --> A'             
     e( 13 - 13) =      1.78961  eV     1   --> A'             
     e( 14 - 14) =      4.71451  eV     1   --> A'             
     e( 15 - 15) =      5.13020  eV     1   --> A'             
     e( 16 - 16) =      5.27677  eV     1   --> A''            
     e( 17 - 17) =      6.19583  eV     1   --> A''            
     e( 18 - 18) =      6.41767  eV     1   --> A'             
     e( 19 - 19) =      7.27517  eV     1   --> A'             
     e( 20 - 20) =      7.77963  eV     1   --> A'             
     e( 21 - 21) =      8.99933  eV     1   --> A'             
     e( 22 - 22) =      9.63974  eV     1   --> A''            
     e( 23 - 23) =      9.93965  eV     1   --> A'             
     e( 24 - 24) =     10.41215  eV     1   --> A''            
     e( 25 - 25) =     10.46822  eV     1   --> A'             
     e( 26 - 26) =     10.72495  eV     1   --> A'             
     e( 27 - 27) =     11.43837  eV     1   --> A'             
     e( 28 - 28) =     11.47845  eV     1   --> A''            
     e( 29 - 29) =     11.72500  eV     1   --> A'             
     e( 30 - 30) =     12.36287  eV     1   -->   ?

 **************************************************************************

 **************************************************************************

                    xk=(   0.14434,   0.00000,   0.00000  )

     Band symmetry, C_s (m)     point group:

     e(  1 -  1) =    -15.73974  eV     1   --> A'             
     e(  2 -  2) =    -15.73872  eV     1   --> A''            
     e(  3 -  3) =    -15.73726  eV     1   --> A'             
     e(  4 -  4) =    -15.73667  eV     1   --> A''            
     e(  5 -  5) =    -15.72177  eV     1   --> A'             
     e(  6 -  6) =    -15.72090  eV     1   --> A'             
     e(  7 -  8) =    -15.70868  eV     2   --> A'             
     e(  7 -  8) =    -15.70868  eV     2   --> A''            
     e(  9 -  9) =    -15.69875  eV     1   --> A'             
     e( 10 - 10) =    -15.69787  eV     1   --> A''            
     e( 11 - 11) =     -4.84151  eV     1   --> A'             
     e( 12 - 12) =     -4.02186  eV     1   --> A'             
     e( 13 - 13) =      1.83677  eV     1   --> A'             
     e( 14 - 14) =      4.43070  eV     1   --> A'             
     e( 15 - 15) =      4.89551  eV     1   --> A'             
     e( 16 - 16) =      5.18681  eV     1   --> A''            
     e( 17 - 17) =      6.18780  eV     1   --> A''            
     e( 18 - 18) =      6.37108  eV     1   --> A'             
     e( 19 - 19) =      7.50307  eV     1   --> A'             
     e( 20 - 20) =      7.92059  eV     1   --> A'             
     e( 21 - 21) =      8.93727  eV     1   --> A'             
     e( 22 - 22) =      9.69482  eV     1   --> A''            
     e( 23 - 23) =      9.79205  eV     1   --> A'             
     e( 24 - 24) =     10.39446  eV     1   --> A''            
     e( 25 - 25) =     10.46718  eV     1   --> A'             
     e( 26 - 26) =     10.63874  eV     1   --> A'             
     e( 27 - 27) =     11.43676  eV     1   --> A'             
     e( 28 - 28) =     11.58537  eV     1   --> A''            
     e( 29 - 29) =     11.94084  eV     1   --> A'             
     e( 30 - 30) =     12.57654  eV     1   --> A''            

 **************************************************************************

 **************************************************************************

                    xk=(   0.17321,   0.00000,   0.00000  )

     Band symmetry, C_s (m)     point group:

     e(  1 -  1) =    -15.74000  eV     1   --> A'             
     e(  2 -  2) =    -15.73860  eV     1   --> A''            
     e(  3 -  3) =    -15.73721  eV     1   --> A'             
     e(  4 -  4) =    -15.73635  eV     1   --> A''            
     e(  5 -  5) =    -15.72161  eV     1   --> A'             
     e(  6 -  6) =    -15.72071  eV     1   --> A'             
     e(  7 -  7) =    -15.70852  eV     1   --> A'             
     e(  8 -  8) =    -15.70840  eV     1   --> A''            
     e(  9 -  9) =    -15.69895  eV     1   --> A'             
     e( 10 - 10) =    -15.69771  eV     1   --> A''            
     e( 11 - 11) =     -4.80786  eV     1   --> A'             
     e( 12 - 12) =     -4.00729  eV     1   --> A'             
     e( 13 - 13) =      1.89408  eV     1   --> A'             
     e( 14 - 14) =      4.14891  eV     1   --> A'             
     e( 15 - 15) =      4.66647  eV     1   --> A'             
     e( 16 - 16) =      5.09216  eV     1   --> A''            
     e( 17 - 17) =      6.16967  eV     1   --> A''            
     e( 18 - 18) =      6.30484  eV     1   --> A'             
     e( 19 - 19) =      7.70243  eV     1   --> A'             
     e( 20 - 20) =      7.93742  eV     1   --> A'             
     e( 21 - 21) =      9.01054  eV     1   --> A'             
     e( 22 - 22) =      9.67276  eV     1   --> A'             
     e( 23 - 23) =      9.73595  eV     1   --> A''            
     e( 24 - 24) =     10.31755  eV     1   --> A'             
     e( 25 - 25) =     10.40511  eV     1   --> A''            
     e( 26 - 26) =     10.74250  eV     1   --> A'             
     e( 27 - 27) =     11.39902  eV     1   --> A'             
     e( 28 - 28) =     11.73878  eV     1   --> A''            
     e( 29 - 29) =     12.23048  eV     1   --> A'             
     e( 30 - 30) =     12.81214  eV     1   --> A''            

 **************************************************************************

 **************************************************************************

                    xk=(   0.20207,   0.00000,   0.00000  )

     Band symmetry, C_s (m)     point group:

     e(  1 -  1) =    -15.74029  eV     1   --> A'             
     e(  2 -  2) =    -15.73848  eV     1   --> A''            
     e(  3 -  3) =    -15.73716  eV     1   --> A'             
     e(  4 -  4) =    -15.73599  eV     1   --> A''            
     e(  5 -  5) =    -15.72143  eV     1   --> A'             
     e(  6 -  6) =    -15.72050  eV     1   --> A'             
     e(  7 -  7) =    -15.70832  eV     1   --> A'             
     e(  8 -  8) =    -15.70818  eV     1   --> A''            
     e(  9 -  9) =    -15.69919  eV     1   --> A'             
     e( 10 - 10) =    -15.69754  eV     1   --> A''            
     e( 11 - 11) =     -4.76899  eV     1   --> A'             
     e( 12 - 12) =     -3.99125  eV     1   --> A'             
     e( 13 - 13) =      1.96131  eV     1   --> A'             
     e( 14 - 14) =      3.87477  eV     1   --> A'             
     e( 15 - 15) =      4.44404  eV     1   --> A'             
     e( 16 - 16) =      4.99617  eV     1   --> A''            
     e( 17 - 17) =      6.14200  eV     1   --> A''            
     e( 18 - 18) =      6.21935  eV     1   --> A'             
     e( 19 - 19) =      7.83737  eV     1   --> A'             
     e( 20 - 20) =      7.87539  eV     1   --> A'             
     e( 21 - 21) =      9.16822  eV     1   --> A'             
     e( 22 - 22) =      9.61335  eV     1   --> A'             
     e( 23 - 23) =      9.74453  eV     1   --> A''            
     e( 24 - 24) =     10.18168  eV     1   --> A'             
     e( 25 - 25) =     10.46942  eV     1   --> A''            
     e( 26 - 26) =     10.88052  eV     1   --> A'             
     e( 27 - 27) =     11.38195  eV     1   --> A'             
     e( 28 - 28) =     11.92836  eV     1   --> A''            
     e( 29 - 29) =     12.54314  eV     1   --> A'             
     e( 30 - 30) =     13.05910  eV     1   --> A''            

 **************************************************************************

 **************************************************************************

                    xk=(   0.23094,   0.00000,   0.00000  )

     Band symmetry, C_s (m)     point group:

     e(  1 -  1) =    -15.74059  eV     1   --> A'             
     e(  2 -  2) =    -15.73835  eV     1   --> A''            
     e(  3 -  3) =    -15.73713  eV     1   --> A'             
     e(  4 -  4) =    -15.73561  eV     1   --> A''            
     e(  5 -  5) =    -15.72125  eV     1   --> A'             
     e(  6 -  6) =    -15.72027  eV     1   --> A'             
     e(  7 -  7) =    -15.70809  eV     1   --> A'             
     e(  8 -  8) =    -15.70794  eV     1   --> A''            
     e(  9 -  9) =    -15.69945  eV     1   --> A'             
     e( 10 - 10) =    -15.69734  eV     1   --> A''            
     e( 11 - 11) =     -4.72537  eV     1   --> A'             
     e( 12 - 12) =     -3.97436  eV     1   --> A'             
     e( 13 - 13) =      2.03811  eV     1   --> A'             
     e( 14 - 14) =      3.61182  eV     1   --> A'             
     e( 15 - 15) =      4.22961  eV     1   --> A'             
     e( 16 - 16) =      4.90137  eV     1   --> A''            
     e( 17 - 17) =      6.10640  eV     1   --> A''            
     e( 18 - 18) =      6.11470  eV     1   --> A'             
     e( 19 - 19) =      7.70257  eV     1   --> A'             
     e( 20 - 20) =      7.99407  eV     1   --> A'             
     e( 21 - 21) =      9.25200  eV     1   --> A'             
     e( 22 - 22) =      9.70093  eV     1   --> A'             
     e( 23 - 23) =      9.71751  eV     1   --> A''            
     e( 24 - 24) =     10.09401  eV     1   --> A'             
     e( 25 - 25) =     10.59424  eV     1   --> A''            
     e( 26 - 26) =     11.01042  eV     1   --> A'             
     e( 27 - 27) =     11.42321  eV     1   --> A'             
     e( 28 - 28) =     12.14601  eV     1   --> A''            
     e( 29 - 29) =     12.86481  eV     1   --> A'             
     e( 30 - 30) =     13.31623  eV     1   --> A''            

 **************************************************************************

 **************************************************************************

                    xk=(   0.25981,   0.00000,   0.00000  )

     Band symmetry, C_s (m)     point group:

     e(  1 -  1) =    -15.74089  eV     1   --> A'             
     e(  2 -  2) =    -15.73822  eV     1   --> A''            
     e(  3 -  3) =    -15.73710  eV     1   --> A'             
     e(  4 -  4) =    -15.73521  eV     1   --> A''            
     e(  5 -  5) =    -15.72108  eV     1   --> A'             
     e(  6 -  6) =    -15.72002  eV     1   --> A'             
     e(  7 -  7) =    -15.70783  eV     1   --> A'             
     e(  8 -  8) =    -15.70768  eV     1   --> A''            
     e(  9 -  9) =    -15.69972  eV     1   --> A'             
     e( 10 - 10) =    -15.69713  eV     1   --> A''            
     e( 11 - 11) =     -4.67755  eV     1   --> A'             
     e( 12 - 12) =     -3.95727  eV     1   --> A'             
     e( 13 - 13) =      2.12397  eV     1   --> A'             
     e( 14 - 14) =      3.36271  eV     1   --> A'             
     e( 15 - 15) =      4.02468  eV     1   --> A'             
     e( 16 - 16) =      4.80970  eV     1   --> A''            
     e( 17 - 17) =      5.99134  eV     1   --> A'             
     e( 18 - 18) =      6.06496  eV     1   --> A''            
     e( 19 - 19) =      7.54990  eV     1   --> A'             
     e( 20 - 20) =      8.07514  eV     1   --> A'             
     e( 21 - 21) =      9.21999  eV     1   --> A'             
     e( 22 - 22) =      9.66693  eV     1   --> A''            
     e( 23 - 23) =      9.89280  eV     1   --> A'             
     e( 24 - 24) =     10.10544  eV     1   --> A'             
     e( 25 - 25) =     10.76901  eV     1   --> A''            
     e( 26 - 26) =     11.09638  eV     1   --> A'             
     e( 27 - 27) =     11.56243  eV     1   --> A'             
     e( 28 - 28) =     12.38565  eV     1   --> A''            
     e( 29 - 29) =     13.18578  eV     1   --> A'             
     e( 30 - 30) =     13.58250  eV     1   -->   ?

 **************************************************************************

 **************************************************************************

                    xk=(   0.28868,   0.00000,   0.00000  )

     Band symmetry, C_s (m)     point group:

     e(  1 -  1) =    -15.74120  eV     1   --> A'             
     e(  2 -  2) =    -15.73809  eV     1   --> A''            
     e(  3 -  3) =    -15.73708  eV     1   --> A'             
     e(  4 -  4) =    -15.73480  eV     1   --> A''            
     e(  5 -  5) =    -15.72092  eV     1   --> A'             
     e(  6 -  6) =    -15.71976  eV     1   --> A'             
     e(  7 -  7) =    -15.70753  eV     1   --> A'             
     e(  8 -  8) =    -15.70741  eV     1   --> A''            
     e(  9 -  9) =    -15.70001  eV     1   --> A'             
     e( 10 - 10) =    -15.69692  eV     1   --> A''            
     e( 11 - 11) =     -4.62626  eV     1   --> A'             
     e( 12 - 12) =     -3.94072  eV     1   --> A'             
     e( 13 - 13) =      2.21796  eV     1   --> A'             
     e( 14 - 14) =      3.12987  eV     1   --> A'             
     e( 15 - 15) =      3.83076  eV     1   --> A'             
     e( 16 - 16) =      4.72263  eV     1   --> A''            
     e( 17 - 17) =      5.85038  eV     1   --> A'             
     e( 18 - 18) =      6.01993  eV     1   --> A''            
     e( 19 - 19) =      7.40078  eV     1   --> A'             
     e( 20 - 20) =      8.11661  eV     1   --> A'             
     e( 21 - 21) =      9.15092  eV     1   --> A'             
     e( 22 - 22) =      9.60546  eV     1   --> A''            
     e( 23 - 23) =      9.98438  eV     1   --> A'             
     e( 24 - 24) =     10.31786  eV     1   --> A'             
     e( 25 - 25) =     10.98106  eV     1   --> A''            
     e( 26 - 26) =     11.15342  eV     1   --> A'             
     e( 27 - 27) =     11.78866  eV     1   --> A'             
     e( 28 - 28) =     12.64241  eV     1   --> A''            
     e( 29 - 29) =     13.48801  eV     1   --> A'             
     e( 30 - 30) =     13.85622  eV     1   -->   ?

 **************************************************************************

 **************************************************************************

                    xk=(   0.31754,   0.00000,   0.00000  )

     Band symmetry, C_s (m)     point group:

     e(  1 -  1) =    -15.74151  eV     1   --> A'             
     e(  2 -  2) =    -15.73797  eV     1   --> A''            
     e(  3 -  3) =    -15.73707  eV     1   --> A'             
     e(  4 -  4) =    -15.73439  eV     1   --> A''            
     e(  5 -  5) =    -15.72078  eV     1   --> A'             
     e(  6 -  6) =    -15.71949  eV     1   --> A'             
     e(  7 -  8) =    -15.70721  eV     2   --> A'             
     e(  7 -  8) =    -15.70721  eV     2   --> A''            
     e(  9 -  9) =    -15.70032  eV     1   --> A'             
     e( 10 - 10) =    -15.69670  eV     1   --> A''            
     e( 11 - 11) =     -4.57221  eV     1   --> A'             
     e( 12 - 12) =     -3.92548  eV     1   --> A'             
     e( 13 - 13) =      2.31797  eV     1   --> A'             
     e( 14 - 14) =      2.91657  eV     1   --> A'             
     e( 15 - 15) =      3.64936  eV     1   --> A'             
     e( 16 - 16) =      4.64132  eV     1   --> A''            
     e( 17 - 17) =      5.69390  eV     1   --> A'             
     e( 18 - 18) =      5.97341  eV     1   --> A''            
     e( 19 - 19) =      7.26248  eV     1   --> A'             
     e( 20 - 20) =      8.12723  eV     1   --> A'             
     e( 21 - 21) =      9.07204  eV     1   --> A'             
     e( 22 - 22) =      9.54114  eV     1   --> A''            
     e( 23 - 23) =     10.05436  eV     1   --> A'             
     e( 24 - 24) =     10.59562  eV     1   --> A'             
     e( 25 - 25) =     11.22143  eV     1   --> A''            
     e( 26 - 26) =     11.22708  eV     1   --> A'             
     e( 27 - 27) =     12.06573  eV     1   --> A'             
     e( 28 - 28) =     12.91178  eV     1   --> A''            
     e( 29 - 29) =     13.66685  eV     1   --> A'             
     e( 30 - 30) =     13.92329  eV     1   --> A'             

 **************************************************************************

 **************************************************************************

                    xk=(   0.34641,   0.00000,   0.00000  )

     Band symmetry, C_s (m)     point group:

     e(  1 -  1) =    -15.74181  eV     1   --> A'             
     e(  2 -  2) =    -15.73786  eV     1   --> A''            
     e(  3 -  3) =    -15.73707  eV     1   --> A'             
     e(  4 -  4) =    -15.73400  eV     1   --> A''            
     e(  5 -  5) =    -15.72066  eV     1   --> A'             
     e(  6 -  6) =    -15.71922  eV     1   --> A'             
     e(  7 -  8) =    -15.70687  eV     2   --> A'             
     e(  7 -  8) =    -15.70687  eV     2   --> A''            
     e(  9 -  9) =    -15.70064  eV     1   --> A'             
     e( 10 - 10) =    -15.69648  eV     1   --> A''            
     e( 11 - 11) =     -4.51638  eV     1   --> A'             
     e( 12 - 12) =     -3.91234  eV     1   --> A'             
     e( 13 - 13) =      2.41576  eV     1   --> A'             
     e( 14 - 14) =      2.73178  eV     1   --> A'             
     e( 15 - 15) =      3.48207  eV     1   --> A'             
     e( 16 - 16) =      4.56669  eV     1   --> A''            
     e( 17 - 17) =      5.52488  eV     1   --> A'             
     e( 18 - 18) =      5.92732  eV     1   --> A''            
     e( 19 - 19) =      7.13815  eV     1   --> A'             
     e( 20 - 20) =      8.11744  eV     1   --> A'             
     e( 21 - 21) =      8.99236  eV     1   --> A'             
     e( 22 - 22) =      9.47857  eV     1   --> A''            
     e( 23 - 23) =     10.14980  eV     1   --> A'             
     e( 24 - 24) =     10.83509  eV     1   --> A'             
     e( 25 - 25) =     11.36661  eV     1   --> A'             
     e( 26 - 26) =     11.48421  eV     1   --> A''            
     e( 27 - 27) =     12.36882  eV     1   --> A'             
     e( 28 - 28) =     13.18897  eV     1   --> A''            
     e( 29 - 29) =     13.52967  eV     1   --> A'             
     e( 30 - 30) =     13.87910  eV     1   --> A'             

 **************************************************************************

 **************************************************************************

                    xk=(   0.37528,   0.00000,   0.00000  )

     Band symmetry, C_s (m)     point group:

     e(  1 -  1) =    -15.74209  eV     1   --> A'             
     e(  2 -  2) =    -15.73777  eV     1   --> A''            
     e(  3 -  3) =    -15.73707  eV     1   --> A'             
     e(  4 -  4) =    -15.73363  eV     1   --> A''            
     e(  5 -  5) =    -15.72056  eV     1   --> A'             
     e(  6 -  6) =    -15.71896  eV     1   --> A'             
     e(  7 -  8) =    -15.70658  eV     2   --> A'             
     e(  7 -  8) =    -15.70658  eV     2   --> A''            
     e(  9 -  9) =    -15.70096  eV     1   --> A'             
     e( 10 - 10) =    -15.69627  eV     1   --> A''            
     e( 11 - 11) =     -4.45984  eV     1   --> A'             
     e( 12 - 12) =     -3.90202  eV     1   --> A'             
     e( 13 - 13) =      2.44829  eV     1   --> A'             
     e( 14 - 14) =      2.63880  eV     1   --> A'             
     e( 15 - 15) =      3.33056  eV     1   --> A'             
     e( 16 - 16) =      4.49946  eV     1   --> A''            
     e( 17 - 17) =      5.34702  eV     1   --> A'             
     e( 18 - 18) =      5.88329  eV     1   --> A''            
     e( 19 - 19) =      7.02894  eV     1   --> A'             
     e( 20 - 20) =      8.09624  eV     1   --> A'             
     e( 21 - 21) =      8.91702  eV     1   --> A'             
     e( 22 - 22) =      9.42040  eV     1   --> A''            
     e( 23 - 23) =     10.26743  eV     1   --> A'             
     e( 24 - 24) =     10.99355  eV     1   --> A'             
     e( 25 - 25) =     11.60707  eV     1   --> A'             
     e( 26 - 26) =     11.76514  eV     1   --> A''            
     e( 27 - 27) =     12.67136  eV     1   --> A'             
     e( 28 - 28) =     13.31282  eV     1   --> A'             
     e( 29 - 29) =     13.46778  eV     1   --> A''            
     e( 30 - 30) =     13.77532  eV     1   --> A'             

 **************************************************************************

 **************************************************************************

                    xk=(   0.40415,   0.00000,   0.00000  )

     Band symmetry, C_s (m)     point group:

     e(  1 -  1) =    -15.74235  eV     1   --> A'             
     e(  2 -  2) =    -15.73768  eV     1   --> A''            
     e(  3 -  3) =    -15.73708  eV     1   --> A'             
     e(  4 -  4) =    -15.73329  eV     1   --> A''            
     e(  5 -  5) =    -15.72048  eV     1   --> A'             
     e(  6 -  6) =    -15.71871  eV     1   --> A'             
     e(  7 -  7) =    -15.70632  eV     1   --> A''            
     e(  8 -  8) =    -15.70612  eV     1   --> A'             
     e(  9 -  9) =    -15.70128  eV     1   --> A'             
     e( 10 - 10) =    -15.69607  eV     1   --> A''            
     e( 11 - 11) =     -4.40379  eV     1   --> A'             
     e( 12 - 12) =     -3.89513  eV     1   --> A'             
     e( 13 - 13) =      2.33784  eV     1   --> A'             
     e( 14 - 14) =      2.71465  eV     1   --> A'             
     e( 15 - 15) =      3.19699  eV     1   --> A'             
     e( 16 - 16) =      4.44020  eV     1   --> A''            
     e( 17 - 17) =      5.16453  eV     1   --> A'             
     e( 18 - 18) =      5.84270  eV     1   --> A''            
     e( 19 - 19) =      6.93510  eV     1   --> A'             
     e( 20 - 20) =      8.07015  eV     1   --> A'             
     e( 21 - 21) =      8.84909  eV     1   --> A'             
     e( 22 - 22) =      9.36821  eV     1   --> A''            
     e( 23 - 23) =     10.40093  eV     1   --> A'             
     e( 24 - 24) =     11.09591  eV     1   --> A'             
     e( 25 - 25) =     11.91846  eV     1   --> A'             
     e( 26 - 26) =     12.06077  eV     1   --> A''            
     e( 27 - 27) =     12.89325  eV     1   --> A'             
     e( 28 - 28) =     13.12723  eV     1   --> A'             
     e( 29 - 29) =     13.70456  eV     1   --> A'             
     e( 30 - 30) =     13.73876  eV     1   --> A''            

 **************************************************************************

 **************************************************************************

                    xk=(   0.43301,   0.00000,   0.00000  )

     Band symmetry, C_s (m)     point group:

     e(  1 -  1) =    -15.74257  eV     1   --> A'             
     e(  2 -  2) =    -15.73761  eV     1   --> A''            
     e(  3 -  3) =    -15.73708  eV     1   --> A'             
     e(  4 -  4) =    -15.73299  eV     1   --> A''            
     e(  5 -  5) =    -15.72041  eV     1   --> A'             
     e(  6 -  6) =    -15.71848  eV     1   --> A'             
     e(  7 -  7) =    -15.70609  eV     1   --> A''            
     e(  8 -  8) =    -15.70574  eV     1   --> A'             
     e(  9 -  9) =    -15.70161  eV     1   --> A'             
     e( 10 - 10) =    -15.69590  eV     1   --> A''            
     e( 11 - 11) =     -4.34970  eV     1   --> A'             
     e( 12 - 12) =     -3.89204  eV     1   --> A'             
     e( 13 - 13) =      2.21103  eV     1   --> A'             
     e( 14 - 14) =      2.82872  eV     1   --> A'             
     e( 15 - 15) =      3.08595  eV     1   --> A'             
     e( 16 - 16) =      4.38938  eV     1   --> A''            
     e( 17 - 17) =      4.98205  eV     1   --> A'             
     e( 18 - 18) =      5.80664  eV     1   --> A''            
     e( 19 - 19) =      6.85639  eV     1   --> A'             
     e( 20 - 20) =      8.04349  eV     1   --> A'             
     e( 21 - 21) =      8.79035  eV     1   --> A'             
     e( 22 - 22) =      9.32299  eV     1   --> A''            
     e( 23 - 23) =     10.54538  eV     1   --> A'             
     e( 24 - 24) =     11.17689  eV     1   --> A'             
     e( 25 - 25) =     12.25584  eV     1   --> A'             
     e( 26 - 26) =     12.36788  eV     1   --> A''            
     e( 27 - 27) =     12.80132  eV     1   --> A'             
     e( 28 - 28) =     13.11900  eV     1   --> A'             
     e( 29 - 29) =     13.78464  eV     1   --> A'             
     e( 30 - 30) =     13.98603  eV     1   --> A''            

 **************************************************************************

 **************************************************************************

                    xk=(   0.46188,   0.00000,   0.00000  )

     Band symmetry, C_s (m)     point group:

     e(  1 -  1) =    -15.74276  eV     1   --> A'             
     e(  2 -  2) =    -15.73755  eV     1   --> A''            
     e(  3 -  3) =    -15.73709  eV     1   --> A'             
     e(  4 -  4) =    -15.73274  eV     1   --> A''            
     e(  5 -  5) =    -15.72036  eV     1   --> A'             
     e(  6 -  6) =    -15.71828  eV     1   --> A'             
     e(  7 -  7) =    -15.70589  eV     1   --> A''            
     e(  8 -  8) =    -15.70537  eV     1   --> A'             
     e(  9 -  9) =    -15.70193  eV     1   --> A'             
     e( 10 - 10) =    -15.69574  eV     1   --> A''            
     e( 11 - 11) =     -4.29937  eV     1   --> A'             
     e( 12 - 12) =     -3.89276  eV     1   --> A'             
     e( 13 - 13) =      2.10131  eV     1   --> A'             
     e( 14 - 14) =      2.91372  eV     1   --> A'             
     e( 15 - 15) =      3.03044  eV     1   --> A'             
     e( 16 - 16) =      4.34735  eV     1   --> A''            
     e( 17 - 17) =      4.80509  eV     1   --> A'             
     e( 18 - 18) =      5.77603  eV     1   --> A''            
     e( 19 - 19) =      6.79249  eV     1   --> A'             
     e( 20 - 20) =      8.01905  eV     1   --> A'             
     e( 21 - 21) =      8.74174  eV     1   --> A'             
     e( 22 - 22) =      9.28537  eV     1   --> A''            
     e( 23 - 23) =     10.69694  eV     1   --> A'             
     e( 24 - 24) =     11.24786  eV     1   --> A'             
     e( 25 - 25) =     12.57337  eV     1   --> A'             
     e( 26 - 26) =     12.60441  eV     1   --> A'             
     e( 27 - 27) =     12.68299  eV     1   --> A''            
     e( 28 - 28) =     13.10233  eV     1   --> A'             
     e( 29 - 29) =     14.02263  eV     1   --> A'             
     e( 30 - 30) =     14.18220  eV     1   --> A''            

 **************************************************************************

 **************************************************************************

                    xk=(   0.49075,   0.00000,   0.00000  )

     Band symmetry, C_s (m)     point group:

     e(  1 -  1) =    -15.74293  eV     1   --> A'             
     e(  2 -  2) =    -15.73750  eV     1   --> A''            
     e(  3 -  3) =    -15.73710  eV     1   --> A'             
     e(  4 -  4) =    -15.73253  eV     1   --> A''            
     e(  5 -  5) =    -15.72033  eV     1   --> A'             
     e(  6 -  6) =    -15.71812  eV     1   --> A'             
     e(  7 -  7) =    -15.70573  eV     1   --> A''            
     e(  8 -  8) =    -15.70502  eV     1   --> A'             
     e(  9 -  9) =    -15.70224  eV     1   --> A'             
     e( 10 - 10) =    -15.69562  eV     1   --> A''            
     e( 11 - 11) =     -4.25499  eV     1   --> A'             
     e( 12 - 12) =     -3.89668  eV     1   --> A'             
     e( 13 - 13) =      2.01386  eV     1   --> A'             
     e( 14 - 14) =      2.87968  eV     1   --> A'             
     e( 15 - 15) =      3.11187  eV     1   --> A'             
     e( 16 - 16) =      4.31439  eV     1   --> A''            
     e( 17 - 17) =      4.64093  eV     1   --> A'             
     e( 18 - 18) =      5.75155  eV     1   --> A''            
     e( 19 - 19) =      6.74310  eV     1   --> A'             
     e( 20 - 20) =      7.99860  eV     1   --> A'             
     e( 21 - 21) =      8.70373  eV     1   --> A'             
     e( 22 - 22) =      9.25577  eV     1   --> A''            
     e( 23 - 23) =     10.85168  eV     1   --> A'             
     e( 24 - 24) =     11.30599  eV     1   --> A'             
     e( 25 - 25) =     12.41641  eV     1   --> A'             
     e( 26 - 26) =     12.73857  eV     1   --> A'             
     e( 27 - 27) =     13.00176  eV     1   --> A''            
     e( 28 - 28) =     13.20517  eV     1   --> A'             
     e( 29 - 29) =     14.28543  eV     1   --> A'             
     e( 30 - 30) =     14.28759  eV     1   --> A''            

 **************************************************************************

 **************************************************************************

                    xk=(   0.51962,   0.00000,   0.00000  )

     Band symmetry, C_s (m)     point group:

     e(  1 -  1) =    -15.74304  eV     1   --> A'             
     e(  2 -  2) =    -15.73747  eV     1   --> A''            
     e(  3 -  3) =    -15.73710  eV     1   --> A'             
     e(  4 -  4) =    -15.73239  eV     1   --> A''            
     e(  5 -  5) =    -15.72031  eV     1   --> A'             
     e(  6 -  6) =    -15.71800  eV     1   --> A'             
     e(  7 -  7) =    -15.70561  eV     1   --> A''            
     e(  8 -  8) =    -15.70470  eV     1   --> A'             
     e(  9 -  9) =    -15.70252  eV     1   --> A'             
     e( 10 - 10) =    -15.69553  eV     1   --> A''            
     e( 11 - 11) =     -4.21931  eV     1   --> A'             
     e( 12 - 12) =     -3.90240  eV     1   --> A'             
     e( 13 - 13) =      1.95052  eV     1   --> A'             
     e( 14 - 14) =      2.82991  eV     1   --> A'             
     e( 15 - 15) =      3.21725  eV     1   --> A'             
     e( 16 - 16) =      4.29071  eV     1   --> A''            
     e( 17 - 17) =      4.50057  eV     1   --> A'             
     e( 18 - 18) =      5.73372  eV     1   --> A''            
     e( 19 - 19) =      6.70798  eV     1   --> A'             
     e( 20 - 20) =      7.98332  eV     1   --> A'             
     e( 21 - 21) =      8.67651  eV     1   --> A'             
     e( 22 - 22) =      9.23447  eV     1   --> A''            
     e( 23 - 23) =     11.00417  eV     1   --> A'             
     e( 24 - 24) =     11.33893  eV     1   --> A'             
     e( 25 - 25) =     12.26071  eV     1   --> A'             
     e( 26 - 26) =     12.70967  eV     1   --> A'             
     e( 27 - 27) =     13.31813  eV     1   --> A''            
     e( 28 - 28) =     13.50700  eV     1   --> A'             
     e( 29 - 29) =     14.26883  eV     1   --> A''            
     e( 30 - 30) =     14.45902  eV     1   --> A'             

 **************************************************************************

 **************************************************************************

                    xk=(   0.54848,   0.00000,   0.00000  )

     Band symmetry, C_s (m)     point group:

     e(  1 -  1) =    -15.74311  eV     1   --> A'             
     e(  2 -  2) =    -15.73745  eV     1   --> A''            
     e(  3 -  3) =    -15.73711  eV     1   --> A'             
     e(  4 -  4) =    -15.73230  eV     1   --> A''            
     e(  5 -  5) =    -15.72030  eV     1   --> A'             
     e(  6 -  6) =    -15.71793  eV     1   --> A'             
     e(  7 -  7) =    -15.70554  eV     1   --> A''            
     e(  8 -  8) =    -15.70446  eV     1   --> A'             
     e(  9 -  9) =    -15.70274  eV     1   --> A'             
     e( 10 - 10) =    -15.69547  eV     1   --> A''            
     e( 11 - 11) =     -4.19570  eV     1   --> A'             
     e( 12 - 12) =     -3.90760  eV     1   --> A'             
     e( 13 - 13) =      1.91219  eV     1   --> A'             
     e( 14 - 14) =      2.79775  eV     1   --> A'             
     e( 15 - 15) =      3.29736  eV     1   --> A'             
     e( 16 - 16) =      4.27644  eV     1   --> A''            
     e( 17 - 17) =      4.40116  eV     1   --> A'             
     e( 18 - 18) =      5.72288  eV     1   --> A''            
     e( 19 - 19) =      6.68697  eV     1   --> A'             
     e( 20 - 20) =      7.97388  eV     1   --> A'             
     e( 21 - 21) =      8.66017  eV     1   --> A'             
     e( 22 - 22) =      9.22162  eV     1   --> A''            
     e( 23 - 23) =     11.14500  eV     1   --> A'             
     e( 24 - 24) =     11.32813  eV     1   --> A'             
     e( 25 - 25) =     12.15602  eV     1   --> A'             
     e( 26 - 26) =     12.65507  eV     1   --> A'             
     e( 27 - 27) =     13.62263  eV     1   --> A''            
     e( 28 - 28) =     13.84888  eV     1   --> A'             
     e( 29 - 29) =     14.12928  eV     1   --> A''            
     e( 30 - 30) =     14.43823  eV     1   --> A'             

 **************************************************************************

 **************************************************************************

                    xk=(   0.57735,   0.00000,   0.00000  )

     point group C_2h (2/m) 
     there are  4 classes
     the character table:

       E     C2    i     s_h  
A_g    1.00  1.00  1.00  1.00
B_g    1.00 -1.00  1.00 -1.00
A_u    1.00  1.00 -1.00 -1.00
B_u    1.00 -1.00 -1.00  1.00

     the symmetry operations in each class and the name of the first element:

     E        1
                                                                 
     C2       2
                                                                 
     i        3
                                                                 
     s_h      4
                                                                 

     Band symmetry, C_2h (2/m)  point group:

     e(  1 -  1) =    -15.74314  eV     1   --> A_g            
     e(  2 -  2) =    -15.73745  eV     1   --> A_u            
     e(  3 -  3) =    -15.73711  eV     1   --> B_u            
     e(  4 -  4) =    -15.73226  eV     1   --> B_g            
     e(  5 -  5) =    -15.72029  eV     1   --> A_g            
     e(  6 -  6) =    -15.71791  eV     1   --> B_u            
     e(  7 -  7) =    -15.70551  eV     1   --> A_u            
     e(  8 -  8) =    -15.70437  eV     1   --> A_g            
     e(  9 -  9) =    -15.70282  eV     1   --> B_u            
     e( 10 - 10) =    -15.69545  eV     1   --> B_g            
     e( 11 - 11) =     -4.18736  eV     1   --> B_u            
     e( 12 - 12) =     -3.90973  eV     1   --> A_g            
     e( 13 - 13) =      1.89937  eV     1   --> A_g            
     e( 14 - 14) =      2.78683  eV     1   --> B_u            
     e( 15 - 15) =      3.32796  eV     1   --> B_u            
     e( 16 - 16) =      4.27168  eV     1   --> A_u            
     e( 17 - 17) =      4.36424  eV     1   --> A_g            
     e( 18 - 18) =      5.71925  eV     1   --> B_g            
     e( 19 - 19) =      6.67998  eV     1   --> A_g            
     e( 20 - 20) =      7.97070  eV     1   --> B_u            
     e( 21 - 21) =      8.65472  eV     1   --> A_g            
     e( 22 - 22) =      9.21733  eV     1   --> A_u            
     e( 23 - 23) =     11.24746  eV     1   --> B_u            
     e( 24 - 24) =     11.27268  eV     1   --> A_g            
     e( 25 - 25) =     12.11921  eV     1   --> B_u            
     e( 26 - 26) =     12.63266  eV     1   --> A_g            
     e( 27 - 27) =     13.88167  eV     1   --> A_u            
     e( 28 - 28) =     13.92158  eV     1   --> B_g            
     e( 29 - 29) =     14.09221  eV     1   --> A_g            
     e( 30 - 30) =     14.29178  eV     1   --> B_u            

 **************************************************************************

 **************************************************************************

                    xk=(   0.57732,   0.01665,   0.00000  )

     point group C_1 (1)    
     there are  1 classes
     the character table:

       E    
A      1.00

     the symmetry operations in each class and the name of the first element:

     E        1
                                                                 

     Band symmetry, C_1 (1)     point group:

     e(  1 -  1) =    -15.74312  eV     1   --> A              
     e(  2 -  2) =    -15.73745  eV     1   --> A              
     e(  3 -  3) =    -15.73710  eV     1   --> A              
     e(  4 -  4) =    -15.73227  eV     1   --> A              
     e(  5 -  5) =    -15.72028  eV     1   --> A              
     e(  6 -  6) =    -15.71791  eV     1   --> A              
     e(  7 -  7) =    -15.70555  eV     1   --> A              
     e(  8 -  8) =    -15.70434  eV     1   --> A              
     e(  9 -  9) =    -15.70282  eV     1   --> A              
     e( 10 - 10) =    -15.69546  eV     1   --> A              
     e( 11 - 11) =     -4.18670  eV     1   --> A              
     e( 12 - 12) =     -3.90973  eV     1   --> A              
     e( 13 - 13) =      1.90093  eV     1   --> A              
     e( 14 - 14) =      2.78800  eV     1   --> A              
     e( 15 - 15) =      3.32967  eV     1   --> A              
     e( 16 - 16) =      4.25477  eV     1   --> A              
     e( 17 - 17) =      4.36852  eV     1   --> A              
     e( 18 - 18) =      5.70336  eV     1   --> A              
     e( 19 - 19) =      6.69553  eV     1   --> A              
     e( 20 - 20) =      7.99098  eV     1   --> A              
     e( 21 - 21) =      8.62095  eV     1   --> A              
     e( 22 - 22) =      9.25339  eV     1   --> A              
     e( 23 - 23) =     11.24934  eV     1   --> A              
     e( 24 - 24) =     11.27672  eV     1   --> A              
     e( 25 - 25) =     12.11817  eV     1   --> A              
     e( 26 - 26) =     12.63490  eV     1   --> A              
     e( 27 - 27) =     13.80706  eV     1   --> A              
     e( 28 - 28) =     13.86557  eV     1   --> A              
     e( 29 - 29) =     14.14890  eV     1   --> A              
     e( 30 - 30) =     14.33583  eV     1   --> A              

 **************************************************************************

 **************************************************************************

                    xk=(   0.57729,   0.03330,   0.00000  )

     Band symmetry, C_1 (1)     point group:

     e(  1 -  1) =    -15.74309  eV     1   --> A              
     e(  2 -  2) =    -15.73746  eV     1   --> A              
     e(  3 -  3) =    -15.73709  eV     1   --> A              
     e(  4 -  4) =    -15.73229  eV     1   --> A              
     e(  5 -  5) =    -15.72026  eV     1   --> A              
     e(  6 -  6) =    -15.71791  eV     1   --> A              
     e(  7 -  7) =    -15.70564  eV     1   --> A              
     e(  8 -  8) =    -15.70425  eV     1   --> A              
     e(  9 -  9) =    -15.70280  eV     1   --> A              
     e( 10 - 10) =    -15.69549  eV     1   --> A              
     e( 11 - 11) =     -4.18474  eV     1   --> A              
     e( 12 - 12) =     -3.90972  eV     1   --> A              
     e( 13 - 13) =      1.90559  eV     1   --> A              
     e( 14 - 14) =      2.79152  eV     1   --> A              
     e( 15 - 15) =      3.33478  eV     1   --> A              
     e( 16 - 16) =      4.21044  eV     1   --> A              
     e( 17 - 17) =      4.37602  eV     1   --> A              
     e( 18 - 18) =      5.65746  eV     1   --> A              
     e( 19 - 19) =      6.74069  eV     1   --> A              
     e( 20 - 20) =      8.05005  eV     1   --> A              
     e( 21 - 21) =      8.53893  eV     1   --> A              
     e( 22 - 22) =      9.34252  eV     1   --> A              
     e( 23 - 23) =     11.25499  eV     1   --> A              
     e( 24 - 24) =     11.28887  eV     1   --> A              
     e( 25 - 25) =     12.11490  eV     1   --> A              
     e( 26 - 26) =     12.64156  eV     1   --> A              
     e( 27 - 27) =     13.66758  eV     1   --> A              
     e( 28 - 28) =     13.74339  eV     1   --> A              
     e( 29 - 29) =     14.23335  eV     1   --> A              
     e( 30 - 30) =     14.41832  eV     1   --> A              

 **************************************************************************

 **************************************************************************

                    xk=(   0.57726,   0.04995,   0.00000  )

     Band symmetry, C_1 (1)     point group:

     e(  1 -  1) =    -15.74304  eV     1   --> A              
     e(  2 -  2) =    -15.73748  eV     1   --> A              
     e(  3 -  3) =    -15.73706  eV     1   --> A              
     e(  4 -  4) =    -15.73231  eV     1   --> A              
     e(  5 -  5) =    -15.72022  eV     1   --> A              
     e(  6 -  6) =    -15.71792  eV     1   --> A              
     e(  7 -  7) =    -15.70577  eV     1   --> A              
     e(  8 -  8) =    -15.70413  eV     1   --> A              
     e(  9 -  9) =    -15.70276  eV     1   --> A              
     e( 10 - 10) =    -15.69553  eV     1   --> A              
     e( 11 - 11) =     -4.18148  eV     1   --> A              
     e( 12 - 12) =     -3.90973  eV     1   --> A              
     e( 13 - 13) =      1.91335  eV     1   --> A              
     e( 14 - 14) =      2.79733  eV     1   --> A              
     e( 15 - 15) =      3.34331  eV     1   --> A              
     e( 16 - 16) =      4.14645  eV     1   --> A              
     e( 17 - 17) =      4.38192  eV     1   --> A              
     e( 18 - 18) =      5.58611  eV     1   --> A              
     e( 19 - 19) =      6.81117  eV     1   --> A              
     e( 20 - 20) =      8.14331  eV     1   --> A              
     e( 21 - 21) =      8.43746  eV     1   --> A              
     e( 22 - 22) =      9.45698  eV     1   --> A              
     e( 23 - 23) =     11.26442  eV     1   --> A              
     e( 24 - 24) =     11.30918  eV     1   --> A              
     e( 25 - 25) =     12.10910  eV     1   --> A              
     e( 26 - 26) =     12.65248  eV     1   --> A              
     e( 27 - 27) =     13.51094  eV     1   --> A              
     e( 28 - 28) =     13.59901  eV     1   --> A              
     e( 29 - 29) =     14.29511  eV     1   --> A              
     e( 30 - 30) =     14.48285  eV     1   --> A              

 **************************************************************************

 **************************************************************************

                    xk=(   0.57723,   0.06660,   0.00000  )

     Band symmetry, C_1 (1)     point group:

     e(  1 -  1) =    -15.74296  eV     1   --> A              
     e(  2 -  2) =    -15.73751  eV     1   --> A              
     e(  3 -  3) =    -15.73703  eV     1   --> A              
     e(  4 -  4) =    -15.73235  eV     1   --> A              
     e(  5 -  5) =    -15.72017  eV     1   --> A              
     e(  6 -  6) =    -15.71792  eV     1   --> A              
     e(  7 -  7) =    -15.70591  eV     1   --> A              
     e(  8 -  8) =    -15.70399  eV     1   --> A              
     e(  9 -  9) =    -15.70271  eV     1   --> A              
     e( 10 - 10) =    -15.69559  eV     1   --> A              
     e( 11 - 11) =     -4.17694  eV     1   --> A              
     e( 12 - 12) =     -3.90980  eV     1   --> A              
     e( 13 - 13) =      1.92415  eV     1   --> A              
     e( 14 - 14) =      2.80537  eV     1   --> A              
     e( 15 - 15) =      3.35523  eV     1   --> A              
     e( 16 - 16) =      4.06746  eV     1   --> A              
     e( 17 - 17) =      4.38548  eV     1   --> A              
     e( 18 - 18) =      5.49511  eV     1   --> A              
     e( 19 - 19) =      6.90030  eV     1   --> A              
     e( 20 - 20) =      8.26485  eV     1   --> A              
     e( 21 - 21) =      8.33436  eV     1   --> A              
     e( 22 - 22) =      9.58116  eV     1   --> A              
     e( 23 - 23) =     11.27767  eV     1   --> A              
     e( 24 - 24) =     11.33768  eV     1   --> A              
     e( 25 - 25) =     12.10014  eV     1   --> A              
     e( 26 - 26) =     12.66715  eV     1   --> A              
     e( 27 - 27) =     13.34788  eV     1   --> A              
     e( 28 - 28) =     13.44773  eV     1   --> A              
     e( 29 - 29) =     14.32259  eV     1   --> A              
     e( 30 - 30) =     14.49416  eV     1   --> A              

 **************************************************************************

 **************************************************************************

                    xk=(   0.57721,   0.08325,   0.00000  )

     Band symmetry, C_1 (1)     point group:

     e(  1 -  1) =    -15.74286  eV     1   --> A              
     e(  2 -  2) =    -15.73754  eV     1   --> A              
     e(  3 -  3) =    -15.73700  eV     1   --> A              
     e(  4 -  4) =    -15.73239  eV     1   --> A              
     e(  5 -  5) =    -15.72010  eV     1   --> A              
     e(  6 -  6) =    -15.71793  eV     1   --> A              
     e(  7 -  7) =    -15.70608  eV     1   --> A              
     e(  8 -  8) =    -15.70384  eV     1   --> A              
     e(  9 -  9) =    -15.70265  eV     1   --> A              
     e( 10 - 10) =    -15.69566  eV     1   --> A              
     e( 11 - 11) =     -4.17117  eV     1   --> A              
     e( 12 - 12) =     -3.90995  eV     1   --> A              
     e( 13 - 13) =      1.93792  eV     1   --> A              
     e( 14 - 14) =      2.81549  eV     1   --> A              
     e( 15 - 15) =      3.37054  eV     1   --> A              
     e( 16 - 16) =      3.97732  eV     1   --> A              
     e( 17 - 17) =      4.38692  eV     1   --> A              
     e( 18 - 18) =      5.39019  eV     1   --> A              
     e( 19 - 19) =      6.99888  eV     1   --> A              
     e( 20 - 20) =      8.24178  eV     1   --> A              
     e( 21 - 21) =      8.40881  eV     1   --> A              
     e( 22 - 22) =      9.70732  eV     1   --> A              
     e( 23 - 23) =     11.29476  eV     1   --> A              
     e( 24 - 24) =     11.37434  eV     1   --> A              
     e( 25 - 25) =     12.08708  eV     1   --> A              
     e( 26 - 26) =     12.68404  eV     1   --> A              
     e( 27 - 27) =     13.18405  eV     1   --> A              
     e( 28 - 28) =     13.29584  eV     1   --> A              
     e( 29 - 29) =     14.31482  eV     1   --> A              
     e( 30 - 30) =     14.43771  eV     1   --> A              

 **************************************************************************

 **************************************************************************

                    xk=(   0.57718,   0.09990,   0.00000  )

     Band symmetry, C_1 (1)     point group:

     e(  1 -  1) =    -15.74275  eV     1   --> A              
     e(  2 -  2) =    -15.73757  eV     1   --> A              
     e(  3 -  3) =    -15.73696  eV     1   --> A              
     e(  4 -  4) =    -15.73244  eV     1   --> A              
     e(  5 -  5) =    -15.72002  eV     1   --> A              
     e(  6 -  6) =    -15.71795  eV     1   --> A              
     e(  7 -  7) =    -15.70624  eV     1   --> A              
     e(  8 -  8) =    -15.70369  eV     1   --> A              
     e(  9 -  9) =    -15.70257  eV     1   --> A              
     e( 10 - 10) =    -15.69575  eV     1   --> A              
     e( 11 - 11) =     -4.16421  eV     1   --> A              
     e( 12 - 12) =     -3.91027  eV     1   --> A              
     e( 13 - 13) =      1.95459  eV     1   --> A              
     e( 14 - 14) =      2.82756  eV     1   --> A              
     e( 15 - 15) =      3.38924  eV     1   --> A              
     e( 16 - 16) =      3.87954  eV     1   --> A              
     e( 17 - 17) =      4.38643  eV     1   --> A              
     e( 18 - 18) =      5.27630  eV     1   --> A              
     e( 19 - 19) =      7.09431  eV     1   --> A              
     e( 20 - 20) =      8.17221  eV     1   --> A              
     e( 21 - 21) =      8.57005  eV     1   --> A              
     e( 22 - 22) =      9.83113  eV     1   --> A              
     e( 23 - 23) =     11.31574  eV     1   --> A              
     e( 24 - 24) =     11.41890  eV     1   --> A              
     e( 25 - 25) =     12.06860  eV     1   --> A              
     e( 26 - 26) =     12.69768  eV     1   --> A              
     e( 27 - 27) =     13.02726  eV     1   --> A              
     e( 28 - 28) =     13.14714  eV     1   --> A              
     e( 29 - 29) =     14.27761  eV     1   --> A              
     e( 30 - 30) =     14.33136  eV     1   --> A              

 **************************************************************************

 **************************************************************************

                    xk=(   0.57715,   0.11655,   0.00000  )

     Band symmetry, C_1 (1)     point group:

     e(  1 -  1) =    -15.74263  eV     1   --> A              
     e(  2 -  2) =    -15.73761  eV     1   --> A              
     e(  3 -  3) =    -15.73691  eV     1   --> A              
     e(  4 -  4) =    -15.73250  eV     1   --> A              
     e(  5 -  5) =    -15.71992  eV     1   --> A              
     e(  6 -  6) =    -15.71796  eV     1   --> A              
     e(  7 -  7) =    -15.70641  eV     1   --> A              
     e(  8 -  8) =    -15.70353  eV     1   --> A              
     e(  9 -  9) =    -15.70249  eV     1   --> A              
     e( 10 - 10) =    -15.69585  eV     1   --> A              
     e( 11 - 11) =     -4.15609  eV     1   --> A              
     e( 12 - 12) =     -3.91082  eV     1   --> A              
     e( 13 - 13) =      1.97401  eV     1   --> A              
     e( 14 - 14) =      2.84136  eV     1   --> A              
     e( 15 - 15) =      3.41130  eV     1   --> A              
     e( 16 - 16) =      3.77723  eV     1   --> A              
     e( 17 - 17) =      4.38400  eV     1   --> A              
     e( 18 - 18) =      5.15744  eV     1   --> A              
     e( 19 - 19) =      7.16978  eV     1   --> A              
     e( 20 - 20) =      8.14148  eV     1   --> A              
     e( 21 - 21) =      8.74428  eV     1   --> A              
     e( 22 - 22) =      9.94974  eV     1   --> A              
     e( 23 - 23) =     11.34064  eV     1   --> A              
     e( 24 - 24) =     11.47077  eV     1   --> A              
     e( 25 - 25) =     12.04288  eV     1   --> A              
     e( 26 - 26) =     12.68392  eV     1   --> A              
     e( 27 - 27) =     12.90322  eV     1   --> A              
     e( 28 - 28) =     13.00473  eV     1   --> A              
     e( 29 - 29) =     14.20014  eV     1   --> A              
     e( 30 - 30) =     14.21993  eV     1   --> A              

 **************************************************************************

 **************************************************************************

                    xk=(   0.57712,   0.13320,   0.00000  )

     Band symmetry, C_1 (1)     point group:

     e(  1 -  1) =    -15.74249  eV     1   --> A              
     e(  2 -  2) =    -15.73765  eV     1   --> A              
     e(  3 -  3) =    -15.73687  eV     1   --> A              
     e(  4 -  4) =    -15.73256  eV     1   --> A              
     e(  5 -  5) =    -15.71982  eV     1   --> A              
     e(  6 -  6) =    -15.71798  eV     1   --> A              
     e(  7 -  7) =    -15.70658  eV     1   --> A              
     e(  8 -  8) =    -15.70337  eV     1   --> A              
     e(  9 -  9) =    -15.70240  eV     1   --> A              
     e( 10 - 10) =    -15.69597  eV     1   --> A              
     e( 11 - 11) =     -4.14690  eV     1   --> A              
     e( 12 - 12) =     -3.91168  eV     1   --> A              
     e( 13 - 13) =      1.99603  eV     1   --> A              
     e( 14 - 14) =      2.85661  eV     1   --> A              
     e( 15 - 15) =      3.43672  eV     1   --> A              
     e( 16 - 16) =      3.67305  eV     1   --> A              
     e( 17 - 17) =      4.37941  eV     1   --> A              
     e( 18 - 18) =      5.03678  eV     1   --> A              
     e( 19 - 19) =      7.20833  eV     1   --> A              
     e( 20 - 20) =      8.16550  eV     1   --> A              
     e( 21 - 21) =      8.92795  eV     1   --> A              
     e( 22 - 22) =     10.06119  eV     1   --> A              
     e( 23 - 23) =     11.36949  eV     1   --> A              
     e( 24 - 24) =     11.52887  eV     1   --> A              
     e( 25 - 25) =     12.00766  eV     1   --> A              
     e( 26 - 26) =     12.59056  eV     1   --> A              
     e( 27 - 27) =     12.86498  eV     1   --> A              
     e( 28 - 28) =     12.87170  eV     1   --> A              
     e( 29 - 29) =     14.05918  eV     1   --> A              
     e( 30 - 30) =     14.15072  eV     1   --> A              

 **************************************************************************

 **************************************************************************

                    xk=(   0.57709,   0.14985,   0.00000  )

     Band symmetry, C_1 (1)     point group:

     e(  1 -  1) =    -15.74234  eV     1   --> A              
     e(  2 -  2) =    -15.73769  eV     1   --> A              
     e(  3 -  3) =    -15.73683  eV     1   --> A              
     e(  4 -  4) =    -15.73261  eV     1   --> A              
     e(  5 -  5) =    -15.71971  eV     1   --> A              
     e(  6 -  6) =    -15.71800  eV     1   --> A              
     e(  7 -  7) =    -15.70674  eV     1   --> A              
     e(  8 -  8) =    -15.70322  eV     1   --> A              
     e(  9 -  9) =    -15.70230  eV     1   --> A              
     e( 10 - 10) =    -15.69609  eV     1   --> A              
     e( 11 - 11) =     -4.13670  eV     1   --> A              
     e( 12 - 12) =     -3.91295  eV     1   --> A              
     e( 13 - 13) =      2.02044  eV     1   --> A              
     e( 14 - 14) =      2.87299  eV     1   --> A              
     e( 15 - 15) =      3.46546  eV     1   --> A              
     e( 16 - 16) =      3.56924  eV     1   --> A              
     e( 17 - 17) =      4.37232  eV     1   --> A              
     e( 18 - 18) =      4.91688  eV     1   --> A              
     e( 19 - 19) =      7.20402  eV     1   --> A              
     e( 20 - 20) =      8.24933  eV     1   --> A              
     e( 21 - 21) =      9.11797  eV     1   --> A              
     e( 22 - 22) =     10.16416  eV     1   --> A              
     e( 23 - 23) =     11.40222  eV     1   --> A              
     e( 24 - 24) =     11.59149  eV     1   --> A              
     e( 25 - 25) =     11.96050  eV     1   --> A              
     e( 26 - 26) =     12.44435  eV     1   --> A              
     e( 27 - 27) =     12.75078  eV     1   --> A              
     e( 28 - 28) =     12.88642  eV     1   --> A              
     e( 29 - 29) =     13.91573  eV     1   --> A              
     e( 30 - 30) =     14.07868  eV     1   --> A              

 **************************************************************************

 **************************************************************************

                    xk=(   0.57706,   0.16650,   0.00000  )

     Band symmetry, C_1 (1)     point group:

     e(  1 -  1) =    -15.74219  eV     1   --> A              
     e(  2 -  2) =    -15.73772  eV     1   --> A              
     e(  3 -  3) =    -15.73680  eV     1   --> A              
     e(  4 -  4) =    -15.73267  eV     1   --> A              
     e(  5 -  5) =    -15.71959  eV     1   --> A              
     e(  6 -  6) =    -15.71802  eV     1   --> A              
     e(  7 -  7) =    -15.70689  eV     1   --> A              
     e(  8 -  8) =    -15.70307  eV     1   --> A              
     e(  9 -  9) =    -15.70220  eV     1   --> A              
     e( 10 - 10) =    -15.69622  eV     1   --> A              
     e( 11 - 11) =     -4.12556  eV     1   --> A              
     e( 12 - 12) =     -3.91472  eV     1   --> A              
     e( 13 - 13) =      2.04696  eV     1   --> A              
     e( 14 - 14) =      2.89006  eV     1   --> A              
     e( 15 - 15) =      3.46771  eV     1   --> A              
     e( 16 - 16) =      3.49753  eV     1   --> A              
     e( 17 - 17) =      4.36226  eV     1   --> A              
     e( 18 - 18) =      4.79983  eV     1   --> A              
     e( 19 - 19) =      7.16617  eV     1   --> A              
     e( 20 - 20) =      8.38309  eV     1   --> A              
     e( 21 - 21) =      9.31146  eV     1   --> A              
     e( 22 - 22) =     10.25781  eV     1   --> A              
     e( 23 - 23) =     11.43851  eV     1   --> A              
     e( 24 - 24) =     11.65620  eV     1   --> A              
     e( 25 - 25) =     11.89966  eV     1   --> A              
     e( 26 - 26) =     12.28573  eV     1   --> A              
     e( 27 - 27) =     12.64463  eV     1   --> A              
     e( 28 - 28) =     12.92638  eV     1   --> A              
     e( 29 - 29) =     13.77392  eV     1   --> A              
     e( 30 - 30) =     14.01137  eV     1   --> A              

 **************************************************************************

 **************************************************************************

                    xk=(   0.57703,   0.18315,   0.00000  )

     Band symmetry, C_1 (1)     point group:

     e(  1 -  1) =    -15.74205  eV     1   --> A              
     e(  2 -  2) =    -15.73774  eV     1   --> A              
     e(  3 -  3) =    -15.73678  eV     1   --> A              
     e(  4 -  4) =    -15.73272  eV     1   --> A              
     e(  5 -  5) =    -15.71946  eV     1   --> A              
     e(  6 -  6) =    -15.71805  eV     1   --> A              
     e(  7 -  7) =    -15.70703  eV     1   --> A              
     e(  8 -  8) =    -15.70293  eV     1   --> A              
     e(  9 -  9) =    -15.70209  eV     1   --> A              
     e( 10 - 10) =    -15.69635  eV     1   --> A              
     e( 11 - 11) =     -4.11359  eV     1   --> A              
     e( 12 - 12) =     -3.91712  eV     1   --> A              
     e( 13 - 13) =      2.07519  eV     1   --> A              
     e( 14 - 14) =      2.90728  eV     1   --> A              
     e( 15 - 15) =      3.37016  eV     1   --> A              
     e( 16 - 16) =      3.53286  eV     1   --> A              
     e( 17 - 17) =      4.34870  eV     1   --> A              
     e( 18 - 18) =      4.68747  eV     1   --> A              
     e( 19 - 19) =      7.10920  eV     1   --> A              
     e( 20 - 20) =      8.55193  eV     1   --> A              
     e( 21 - 21) =      9.50555  eV     1   --> A              
     e( 22 - 22) =     10.34176  eV     1   --> A              
     e( 23 - 23) =     11.47713  eV     1   --> A              
     e( 24 - 24) =     11.71979  eV     1   --> A              
     e( 25 - 25) =     11.82582  eV     1   --> A              
     e( 26 - 26) =     12.12581  eV     1   --> A              
     e( 27 - 27) =     12.55410  eV     1   --> A              
     e( 28 - 28) =     12.97253  eV     1   --> A              
     e( 29 - 29) =     13.63645  eV     1   --> A              
     e( 30 - 30) =     13.95614  eV     1   --> A              

 **************************************************************************

 **************************************************************************

                    xk=(   0.57700,   0.19980,   0.00000  )

     Band symmetry, C_1 (1)     point group:

     e(  1 -  1) =    -15.74191  eV     1   --> A              
     e(  2 -  2) =    -15.73776  eV     1   --> A              
     e(  3 -  3) =    -15.73678  eV     1   --> A              
     e(  4 -  4) =    -15.73277  eV     1   --> A              
     e(  5 -  5) =    -15.71933  eV     1   --> A              
     e(  6 -  6) =    -15.71808  eV     1   --> A              
     e(  7 -  7) =    -15.70717  eV     1   --> A              
     e(  8 -  8) =    -15.70279  eV     1   --> A              
     e(  9 -  9) =    -15.70199  eV     1   --> A              
     e( 10 - 10) =    -15.69649  eV     1   --> A              
     e( 11 - 11) =     -4.10086  eV     1   --> A              
     e( 12 - 12) =     -3.92025  eV     1   --> A              
     e( 13 - 13) =      2.10465  eV     1   --> A              
     e( 14 - 14) =      2.92401  eV     1   --> A              
     e( 15 - 15) =      3.27815  eV     1   --> A              
     e( 16 - 16) =      3.57146  eV     1   --> A              
     e( 17 - 17) =      4.33108  eV     1   --> A              
     e( 18 - 18) =      4.58146  eV     1   --> A              
     e( 19 - 19) =      7.04443  eV     1   --> A              
     e( 20 - 20) =      8.74427  eV     1   --> A              
     e( 21 - 21) =      9.69708  eV     1   --> A              
     e( 22 - 22) =     10.41583  eV     1   --> A              
     e( 23 - 23) =     11.51302  eV     1   --> A              
     e( 24 - 24) =     11.74547  eV     1   --> A              
     e( 25 - 25) =     11.77712  eV     1   --> A              
     e( 26 - 26) =     11.97014  eV     1   --> A              
     e( 27 - 27) =     12.47791  eV     1   --> A              
     e( 28 - 28) =     13.01857  eV     1   --> A              
     e( 29 - 29) =     13.50555  eV     1   --> A              
     e( 30 - 30) =     13.91952  eV     1   --> A              

 **************************************************************************

 **************************************************************************

                    xk=(   0.57697,   0.21645,   0.00000  )

     Band symmetry, C_1 (1)     point group:

     e(  1 -  1) =    -15.74178  eV     1   --> A              
     e(  2 -  2) =    -15.73777  eV     1   --> A              
     e(  3 -  3) =    -15.73679  eV     1   --> A              
     e(  4 -  4) =    -15.73281  eV     1   --> A              
     e(  5 -  5) =    -15.71920  eV     1   --> A              
     e(  6 -  6) =    -15.71811  eV     1   --> A              
     e(  7 -  7) =    -15.70729  eV     1   --> A              
     e(  8 -  8) =    -15.70265  eV     1   --> A              
     e(  9 -  9) =    -15.70190  eV     1   --> A              
     e( 10 - 10) =    -15.69662  eV     1   --> A              
     e( 11 - 11) =     -4.08750  eV     1   --> A              
     e( 12 - 12) =     -3.92423  eV     1   --> A              
     e( 13 - 13) =      2.13464  eV     1   --> A              
     e( 14 - 14) =      2.93946  eV     1   --> A              
     e( 15 - 15) =      3.19322  eV     1   --> A              
     e( 16 - 16) =      3.61328  eV     1   --> A              
     e( 17 - 17) =      4.30884  eV     1   --> A              
     e( 18 - 18) =      4.48337  eV     1   --> A              
     e( 19 - 19) =      6.97908  eV     1   --> A              
     e( 20 - 20) =      8.95265  eV     1   --> A              
     e( 21 - 21) =      9.88234  eV     1   --> A              
     e( 22 - 22) =     10.47994  eV     1   --> A              
     e( 23 - 23) =     11.52203  eV     1   --> A              
     e( 24 - 24) =     11.68674  eV     1   --> A              
     e( 25 - 25) =     11.77993  eV     1   --> A              
     e( 26 - 26) =     11.86523  eV     1   --> A              
     e( 27 - 27) =     12.41310  eV     1   --> A              
     e( 28 - 28) =     13.05923  eV     1   --> A              
     e( 29 - 29) =     13.38354  eV     1   --> A              
     e( 30 - 30) =     13.90388  eV     1   --> A              

 **************************************************************************

 **************************************************************************

                    xk=(   0.57695,   0.23310,   0.00000  )

     Band symmetry, C_1 (1)     point group:

     e(  1 -  1) =    -15.74166  eV     1   --> A              
     e(  2 -  2) =    -15.73775  eV     1   --> A              
     e(  3 -  3) =    -15.73681  eV     1   --> A              
     e(  4 -  4) =    -15.73284  eV     1   --> A              
     e(  5 -  5) =    -15.71908  eV     1   --> A              
     e(  6 -  6) =    -15.71815  eV     1   --> A              
     e(  7 -  7) =    -15.70740  eV     1   --> A              
     e(  8 -  8) =    -15.70252  eV     1   --> A              
     e(  9 -  9) =    -15.70182  eV     1   --> A              
     e( 10 - 10) =    -15.69675  eV     1   --> A              
     e( 11 - 11) =     -4.07362  eV     1   --> A              
     e( 12 - 12) =     -3.92919  eV     1   --> A              
     e( 13 - 13) =      2.16427  eV     1   --> A              
     e( 14 - 14) =      2.95271  eV     1   --> A              
     e( 15 - 15) =      3.11697  eV     1   --> A              
     e( 16 - 16) =      3.65828  eV     1   --> A              
     e( 17 - 17) =      4.28145  eV     1   --> A              
     e( 18 - 18) =      4.39478  eV     1   --> A              
     e( 19 - 19) =      6.91762  eV     1   --> A              
     e( 20 - 20) =      9.17230  eV     1   --> A              
     e( 21 - 21) =     10.05680  eV     1   --> A              
     e( 22 - 22) =     10.53387  eV     1   --> A              
     e( 23 - 23) =     11.46162  eV     1   --> A              
     e( 24 - 24) =     11.64483  eV     1   --> A              
     e( 25 - 25) =     11.69641  eV     1   --> A              
     e( 26 - 26) =     11.89348  eV     1   --> A              
     e( 27 - 27) =     12.35607  eV     1   --> A              
     e( 28 - 28) =     13.09101  eV     1   --> A              
[...]
     e(  9 - 10) =    -15.69830  eV     2   --> E    L_3       
     e( 11 - 11) =     -4.84705  eV     1   --> A_1  L_1       
     e( 12 - 12) =     -4.17341  eV     1   --> A_1  L_1       
     e( 13 - 13) =      2.04476  eV     1   --> A_1  L_1       
     e( 14 - 14) =      4.89809  eV     1   --> A_1  L_1       
     e( 15 - 16) =      5.56026  eV     2   --> E    L_3       
     e( 17 - 18) =      6.09190  eV     2   --> E    L_3       
     e( 19 - 19) =      7.10243  eV     1   --> A_1  L_1       
     e( 20 - 20) =      7.59036  eV     1   --> A_1  L_1       
     e( 21 - 22) =      9.29098  eV     2   --> E    L_3       
     e( 23 - 23) =     10.00647  eV     1   --> A_1  L_1       
     e( 24 - 25) =     10.33248  eV     2   --> E    L_3       
     e( 26 - 26) =     10.58730  eV     1   --> A_1  L_1       
     e( 27 - 28) =     11.65123  eV     2   --> E    L_3       
     e( 29 - 29) =     11.69530  eV     1   --> A_1  L_1       
     e( 30 - 30) =     12.66172  eV     1   -->   ?

 **************************************************************************

 **************************************************************************

                    xk=(   0.00000,   0.00000,   0.15848  )

     Band symmetry, C_3v (3m)   point group:

     e(  1 -  2) =    -15.73985  eV     2   --> E    L_3       
     e(  3 -  4) =    -15.73657  eV     2   --> E    L_3       
     e(  5 -  5) =    -15.72262  eV     1   --> A_1  L_1       
     e(  6 -  6) =    -15.72093  eV     1   --> A_1  L_1       
     e(  7 -  8) =    -15.70907  eV     2   --> E    L_3       
     e(  9 - 10) =    -15.69831  eV     2   --> E    L_3       
     e( 11 - 11) =     -4.83076  eV     1   --> A_1  L_1       
     e( 12 - 12) =     -4.19721  eV     1   --> A_1  L_1       
     e( 13 - 13) =      2.12119  eV     1   --> A_1  L_1       
     e( 14 - 14) =      4.73936  eV     1   --> A_1  L_1       
     e( 15 - 16) =      5.57784  eV     2   --> E    L_3       
     e( 17 - 18) =      6.07287  eV     2   --> E    L_3       
     e( 19 - 19) =      7.14423  eV     1   --> A_1  L_1       
     e( 20 - 20) =      7.64460  eV     1   --> A_1  L_1       
     e( 21 - 22) =      9.26166  eV     2   --> E    L_3       
     e( 23 - 23) =      9.95455  eV     1   --> A_1  L_1       
     e( 24 - 25) =     10.29231  eV     2   --> E    L_3       
     e( 26 - 26) =     10.60073  eV     1   --> A_1  L_1       
     e( 27 - 27) =     11.69848  eV     1   --> A_1  L_1       
     e( 28 - 29) =     11.74560  eV     2   --> E    L_3       
     e( 30 - 30) =     12.80271  eV     1   -->   ?

 **************************************************************************

 **************************************************************************

                    xk=(   0.00000,   0.00000,   0.17433  )

     Band symmetry, C_3v (3m)   point group:

     e(  1 -  2) =    -15.73994  eV     2   --> E    L_3       
     e(  3 -  4) =    -15.73647  eV     2   --> E    L_3       
     e(  5 -  5) =    -15.72267  eV     1   --> A_1  L_1       
     e(  6 -  6) =    -15.72088  eV     1   --> A_1  L_1       
     e(  7 -  8) =    -15.70907  eV     2   --> E    L_3       
     e(  9 - 10) =    -15.69832  eV     2   --> E    L_3       
     e( 11 - 11) =     -4.81325  eV     1   --> A_1  L_1       
     e( 12 - 12) =     -4.22220  eV     1   --> A_1  L_1       
     e( 13 - 13) =      2.20431  eV     1   --> A_1  L_1       
     e( 14 - 14) =      4.58161  eV     1   --> A_1  L_1       
     e( 15 - 16) =      5.59695  eV     2   --> E    L_3       
     e( 17 - 18) =      6.05226  eV     2   --> E    L_3       
     e( 19 - 19) =      7.18434  eV     1   --> A_1  L_1       
     e( 20 - 20) =      7.69004  eV     1   --> A_1  L_1       
     e( 21 - 22) =      9.23479  eV     2   --> E    L_3       
     e( 23 - 23) =      9.90830  eV     1   --> A_1  L_1       
     e( 24 - 25) =     10.25166  eV     2   --> E    L_3       
     e( 26 - 26) =     10.61152  eV     1   --> A_1  L_1       
     e( 27 - 27) =     11.71581  eV     1   --> A_1  L_1       
     e( 28 - 29) =     11.84990  eV     2   --> E    L_3       
     e( 30 - 30) =     12.94763  eV     1   -->   ?

 **************************************************************************

 **************************************************************************

                    xk=(   0.00000,   0.00000,   0.19018  )

     Band symmetry, C_3v (3m)   point group:

     e(  1 -  2) =    -15.74002  eV     2   --> E    L_3       
     e(  3 -  4) =    -15.73638  eV     2   --> E    L_3       
     e(  5 -  5) =    -15.72271  eV     1   --> A_1  L_1       
     e(  6 -  6) =    -15.72084  eV     1   --> A_1  L_1       
     e(  7 -  8) =    -15.70908  eV     2   --> E    L_3       
     e(  9 - 10) =    -15.69834  eV     2   --> E    L_3       
     e( 11 - 11) =     -4.79473  eV     1   --> A_1  L_1       
     e( 12 - 12) =     -4.24796  eV     1   --> A_1  L_1       
     e( 13 - 13) =      2.29377  eV     1   --> A_1  L_1       
     e( 14 - 14) =      4.42529  eV     1   --> A_1  L_1       
     e( 15 - 16) =      5.61750  eV     2   --> E    L_3       
     e( 17 - 18) =      6.03019  eV     2   --> E    L_3       
     e( 19 - 19) =      7.22354  eV     1   --> A_1  L_1       
     e( 20 - 20) =      7.72535  eV     1   --> A_1  L_1       
     e( 21 - 22) =      9.21063  eV     2   --> E    L_3       
     e( 23 - 23) =      9.86923  eV     1   --> A_1  L_1       
     e( 24 - 25) =     10.21210  eV     2   --> E    L_3       
     e( 26 - 26) =     10.61705  eV     1   --> A_1  L_1       
     e( 27 - 27) =     11.75027  eV     1   --> A_1  L_1       
     e( 28 - 29) =     11.96166  eV     2   --> E    L_3       
     e( 30 - 30) =     13.09622  eV     1   -->   ?

 **************************************************************************

 **************************************************************************

                    xk=(   0.00000,   0.00000,   0.20603  )

     Band symmetry, C_3v (3m)   point group:

     e(  1 -  2) =    -15.74010  eV     2   --> E    L_3       
     e(  3 -  4) =    -15.73629  eV     2   --> E    L_3       
     e(  5 -  5) =    -15.72275  eV     1   --> A_1  L_1       
     e(  6 -  6) =    -15.72080  eV     1   --> A_1  L_1       
     e(  7 -  8) =    -15.70909  eV     2   --> E    L_3       
     e(  9 - 10) =    -15.69834  eV     2   --> E    L_3       
     e( 11 - 11) =     -4.77546  eV     1   --> A_1  L_1       
     e( 12 - 12) =     -4.27406  eV     1   --> A_1  L_1       
     e( 13 - 13) =      2.38917  eV     1   --> A_1  L_1       
     e( 14 - 14) =      4.27087  eV     1   --> A_1  L_1       
     e( 15 - 16) =      5.63938  eV     2   --> E    L_3       
     e( 17 - 18) =      6.00684  eV     2   --> E    L_3       
     e( 19 - 19) =      7.26217  eV     1   --> A_1  L_1       
     e( 20 - 20) =      7.75011  eV     1   --> A_1  L_1       
     e( 21 - 22) =      9.18937  eV     2   --> E    L_3       
     e( 23 - 23) =      9.83794  eV     1   --> A_1  L_1       
     e( 24 - 25) =     10.17487  eV     2   --> E    L_3       
     e( 26 - 26) =     10.61632  eV     1   --> A_1  L_1       
     e( 27 - 27) =     11.80306  eV     1   --> A_1  L_1       
     e( 28 - 29) =     12.07860  eV     2   --> E    L_3       
     e( 30 - 30) =     13.24788  eV     1   -->   ?

 **************************************************************************

 **************************************************************************

                    xk=(   0.00000,   0.00000,   0.22187  )

     Band symmetry, C_3v (3m)   point group:

     e(  1 -  2) =    -15.74016  eV     2   --> E    L_3       
     e(  3 -  4) =    -15.73621  eV     2   --> E    L_3       
     e(  5 -  5) =    -15.72278  eV     1   --> A_1  L_1       
     e(  6 -  6) =    -15.72077  eV     1   --> A_1  L_1       
     e(  7 -  8) =    -15.70909  eV     2   --> E    L_3       
     e(  9 - 10) =    -15.69835  eV     2   --> E    L_3       
     e( 11 - 11) =     -4.75580  eV     1   --> A_1  L_1       
     e( 12 - 12) =     -4.30000  eV     1   --> A_1  L_1       
     e( 13 - 13) =      2.49000  eV     1   --> A_1  L_1       
     e( 14 - 14) =      4.11887  eV     1   --> A_1  L_1       
     e( 15 - 16) =      5.66246  eV     2   --> E    L_3       
     e( 17 - 18) =      5.98236  eV     2   --> E    L_3       
     e( 19 - 19) =      7.30014  eV     1   --> A_1  L_1       
     e( 20 - 20) =      7.76468  eV     1   --> A_1  L_1       
     e( 21 - 22) =      9.17107  eV     2   --> E    L_3       
     e( 23 - 23) =      9.81427  eV     1   --> A_1  L_1       
     e( 24 - 25) =     10.14093  eV     2   --> E    L_3       
     e( 26 - 26) =     10.60982  eV     1   --> A_1  L_1       
     e( 27 - 27) =     11.87370  eV     1   --> A_1  L_1       
     e( 28 - 29) =     12.19833  eV     2   --> E    L_3       
     e( 30 - 30) =     13.35658  eV     1   --> A_1  L_1       

 **************************************************************************

 **************************************************************************

                    xk=(   0.00000,   0.00000,   0.23772  )

     Band symmetry, C_3v (3m)   point group:

     e(  1 -  2) =    -15.74022  eV     2   --> E    L_3       
     e(  3 -  4) =    -15.73615  eV     2   --> E    L_3       
     e(  5 -  5) =    -15.72281  eV     1   --> A_1  L_1       
     e(  6 -  6) =    -15.72074  eV     1   --> A_1  L_1       
     e(  7 -  8) =    -15.70909  eV     2   --> E    L_3       
     e(  9 - 10) =    -15.69836  eV     2   --> E    L_3       
     e( 11 - 11) =     -4.73626  eV     1   --> A_1  L_1       
     e( 12 - 12) =     -4.32509  eV     1   --> A_1  L_1       
     e( 13 - 13) =      2.59566  eV     1   --> A_1  L_1       
     e( 14 - 14) =      3.96992  eV     1   --> A_1  L_1       
     e( 15 - 16) =      5.68660  eV     2   --> E    L_3       
     e( 17 - 18) =      5.95694  eV     2   --> E    L_3       
     e( 19 - 19) =      7.33696  eV     1   --> A_1  L_1       
     e( 20 - 20) =      7.77013  eV     1   --> A_1  L_1       
     e( 21 - 22) =      9.15574  eV     2   --> E    L_3       
     e( 23 - 23) =      9.79748  eV     1   --> A_1  L_1       
     e( 24 - 25) =     10.11105  eV     2   --> E    L_3       
     e( 26 - 26) =     10.59912  eV     1   --> A_1  L_1       
     e( 27 - 27) =     11.96036  eV     1   --> A_1  L_1       
     e( 28 - 29) =     12.31798  eV     2   --> E    L_3       
     e( 30 - 30) =     13.26417  eV     1   --> A_1  L_1       

 **************************************************************************

 **************************************************************************

                    xk=(   0.00000,   0.00000,   0.25357  )

     Band symmetry, C_3v (3m)   point group:

     e(  1 -  2) =    -15.74026  eV     2   --> E    L_3       
     e(  3 -  4) =    -15.73609  eV     2   --> E    L_3       
     e(  5 -  5) =    -15.72283  eV     1   --> A_1  L_1       
     e(  6 -  6) =    -15.72071  eV     1   --> A_1  L_1       
     e(  7 -  8) =    -15.70909  eV     2   --> E    L_3       
     e(  9 - 10) =    -15.69837  eV     2   --> E    L_3       
     e( 11 - 11) =     -4.71754  eV     1   --> A_1  L_1       
     e( 12 - 12) =     -4.34853  eV     1   --> A_1  L_1       
     e( 13 - 13) =      2.70522  eV     1   --> A_1  L_1       
     e( 14 - 14) =      3.82494  eV     1   --> A_1  L_1       
     e( 15 - 16) =      5.71162  eV     2   --> E    L_3       
     e( 17 - 18) =      5.93079  eV     2   --> E    L_3       
     e( 19 - 19) =      7.37170  eV     1   --> A_1  L_1       
     e( 20 - 20) =      7.76817  eV     1   --> A_1  L_1       
     e( 21 - 22) =      9.14334  eV     2   --> E    L_3       
     e( 23 - 23) =      9.78643  eV     1   --> A_1  L_1       
     e( 24 - 25) =     10.08582  eV     2   --> E    L_3       
     e( 26 - 26) =     10.58631  eV     1   --> A_1  L_1       
     e( 27 - 27) =     12.06023  eV     1   --> A_1  L_1       
     e( 28 - 29) =     12.43371  eV     2   --> E    L_3       
     e( 30 - 30) =     13.15482  eV     1   --> A_1  L_1       

 **************************************************************************

 **************************************************************************

                    xk=(   0.00000,   0.00000,   0.26942  )

     Band symmetry, C_3v (3m)   point group:

     e(  1 -  2) =    -15.74030  eV     2   --> E    L_3       
     e(  3 -  4) =    -15.73605  eV     2   --> E    L_3       
     e(  5 -  5) =    -15.72285  eV     1   --> A_1  L_1       
     e(  6 -  6) =    -15.72070  eV     1   --> A_1  L_1       
     e(  7 -  8) =    -15.70909  eV     2   --> E    L_3       
     e(  9 - 10) =    -15.69837  eV     2   --> E    L_3       
     e( 11 - 11) =     -4.70064  eV     1   --> A_1  L_1       
     e( 12 - 12) =     -4.36924  eV     1   --> A_1  L_1       
     e( 13 - 13) =      2.81707  eV     1   --> A_1  L_1       
     e( 14 - 14) =      3.68556  eV     1   --> A_1  L_1       
     e( 15 - 16) =      5.73734  eV     2   --> E    L_3       
     e( 17 - 18) =      5.90416  eV     2   --> E    L_3       
     e( 19 - 19) =      7.40294  eV     1   --> A_1  L_1       
     e( 20 - 20) =      7.76120  eV     1   --> A_1  L_1       
     e( 21 - 22) =      9.13380  eV     2   --> E    L_3       
     e( 23 - 23) =      9.77985  eV     1   --> A_1  L_1       
     e( 24 - 25) =     10.06572  eV     2   --> E    L_3       
     e( 26 - 26) =     10.57362  eV     1   --> A_1  L_1       
     e( 27 - 27) =     12.16958  eV     1   --> A_1  L_1       
     e( 28 - 29) =     12.54004  eV     2   --> E    L_3       
     e( 30 - 30) =     13.03545  eV     1   --> A_1  L_1       

 **************************************************************************

 **************************************************************************

                    xk=(   0.00000,   0.00000,   0.28527  )

     Band symmetry, C_3v (3m)   point group:

     e(  1 -  2) =    -15.74033  eV     2   --> E    L_3       
     e(  3 -  4) =    -15.73602  eV     2   --> E    L_3       
     e(  5 -  5) =    -15.72287  eV     1   --> A_1  L_1       
     e(  6 -  6) =    -15.72068  eV     1   --> A_1  L_1       
     e(  7 -  8) =    -15.70909  eV     2   --> E    L_3       
     e(  9 - 10) =    -15.69837  eV     2   --> E    L_3       
     e( 11 - 11) =     -4.68679  eV     1   --> A_1  L_1       
     e( 12 - 12) =     -4.38584  eV     1   --> A_1  L_1       
     e( 13 - 13) =      2.92747  eV     1   --> A_1  L_1       
     e( 14 - 14) =      3.55550  eV     1   --> A_1  L_1       
     e( 15 - 16) =      5.76339  eV     2   --> E    L_3       
     e( 17 - 18) =      5.87743  eV     2   --> E    L_3       
     e( 19 - 19) =      7.42855  eV     1   --> A_1  L_1       
     e( 20 - 20) =      7.75221  eV     1   --> A_1  L_1       
     e( 21 - 22) =      9.12707  eV     2   --> E    L_3       
     e( 23 - 23) =      9.77633  eV     1   --> A_1  L_1       
     e( 24 - 25) =     10.05112  eV     2   --> E    L_3       
     e( 26 - 26) =     10.56299  eV     1   --> A_1  L_1       
     e( 27 - 27) =     12.28262  eV     1   --> A_1  L_1       
     e( 28 - 29) =     12.62895  eV     2   --> E    L_3       
     e( 30 - 30) =     12.91394  eV     1   --> A_1  L_1       

 **************************************************************************

 **************************************************************************

                    xk=(   0.00000,   0.00000,   0.30112  )

     Band symmetry, C_3v (3m)   point group:

     e(  1 -  2) =    -15.74034  eV     2   --> E    L_3       
     e(  3 -  4) =    -15.73600  eV     2   --> E    L_3       
     e(  5 -  5) =    -15.72287  eV     1   --> A_1  L_1       
     e(  6 -  6) =    -15.72067  eV     1   --> A_1  L_1       
     e(  7 -  8) =    -15.70910  eV     2   --> E    L_3       
     e(  9 - 10) =    -15.69838  eV     2   --> E    L_3       
     e( 11 - 11) =     -4.67757  eV     1   --> A_1  L_1       
     e( 12 - 12) =     -4.39675  eV     1   --> A_1  L_1       
     e( 13 - 13) =      3.02506  eV     1   --> A_1  L_1       
     e( 14 - 14) =      3.44611  eV     1   --> A_1  L_1       
     e( 15 - 16) =      5.78877  eV     2   --> E    L_3       
     e( 17 - 18) =      5.85164  eV     2   --> E    L_3       
     e( 19 - 19) =      7.44576  eV     1   --> A_1  L_1       
     e( 20 - 20) =      7.74467  eV     1   --> A_1  L_1       
     e( 21 - 22) =      9.12305  eV     2   --> E    L_3       
     e( 23 - 23) =      9.77476  eV     1   --> A_1  L_1       
     e( 24 - 25) =     10.04225  eV     2   --> E    L_3       
     e( 26 - 26) =     10.55595  eV     1   --> A_1  L_1       
     e( 27 - 27) =     12.38594  eV     1   --> A_1  L_1       
     e( 28 - 29) =     12.68974  eV     2   --> E    L_3       
     e( 30 - 30) =     12.80505  eV     1   --> A_1  L_1       

 **************************************************************************

 **************************************************************************

                    xk=(   0.00000,   0.00000,   0.31696  )

     point group D_3d (-3m) 
     there are  6 classes
     the character table:

       E     2C3   3C2'  i     2S6   3s_d 
A_1g   1.00  1.00  1.00  1.00  1.00  1.00
A_2g   1.00  1.00 -1.00  1.00  1.00 -1.00
E_g    2.00 -1.00  0.00  2.00 -1.00  0.00
A_1u   1.00  1.00  1.00 -1.00 -1.00 -1.00
A_2u   1.00  1.00 -1.00 -1.00 -1.00  1.00
E_u    2.00 -1.00  0.00 -2.00  1.00  0.00

     the symmetry operations in each class and the name of the first element:

     E        1
                                                                 
     2C3      3    4
                                                                 
     3C2'     2    6    5
                                                                 
     i        7
                                                                 
     2S6      9   10
                                                                 
     3s_d     8   12   11
                                                                 

     Band symmetry, D_3d (-3m)  point group:

     e(  1 -  2) =    -15.74035  eV     2   --> E_u  L_3'      
     e(  3 -  4) =    -15.73599  eV     2   --> E_g  L_3       
     e(  5 -  5) =    -15.72287  eV     1   --> A_2u L_2'      
     e(  6 -  6) =    -15.72067  eV     1   --> A_1g L_1       
     e(  7 -  8) =    -15.70910  eV     2   --> E_g  L_3       
     e(  9 - 10) =    -15.69838  eV     2   --> E_u  L_3'      
     e( 11 - 11) =     -4.67431  eV     1   --> A_1g L_1       
     e( 12 - 12) =     -4.40057  eV     1   --> A_2u L_2'      
     e( 13 - 13) =      3.07184  eV     1   --> A_2u L_2'      
     e( 14 - 14) =      3.39540  eV     1   --> A_1g L_1       
     e( 15 - 16) =      5.80506  eV     2   --> E_u  L_3'      
     e( 17 - 18) =      5.83520  eV     2   --> E_g  L_3       
     e( 19 - 19) =      7.45188  eV     1   --> A_1g L_1       
     e( 20 - 20) =      7.74168  eV     1   --> A_2u L_2'      
     e( 21 - 22) =      9.12171  eV     2   --> E_u  L_3'      
     e( 23 - 23) =      9.77429  eV     1   --> A_1g L_1       
     e( 24 - 25) =     10.03928  eV     2   --> E_g  L_3       
     e( 26 - 26) =     10.55349  eV     1   --> A_2u L_2'      
     e( 27 - 27) =     12.43694  eV     1   --> A_2u L_2'      
     e( 28 - 29) =     12.71162  eV     2   --> E_u  L_3'      
     e( 30 - 30) =     12.75210  eV     1   --> A_1g L_1       

 **************************************************************************

     BANDS        :      8.58s CPU     10.91s WALL


   This run was terminated on:  16:52:15  25Sep2023            

=------------------------------------------------------------------------------=
   JOB DONE.
=------------------------------------------------------------------------------=
