
     Program PWSCF v.7.1 starts on 25Sep2023 at 16:51:55 

     This program is part of the open-source Quantum ESPRESSO suite
     for quantum simulation of materials; please cite
         "P. Giannozzi et al., J. Phys.:Condens. Matter 21 395502 (2009);
         "P. Giannozzi et al., J. Phys.:Condens. Matter 29 465901 (2017);
         "P. Giannozzi et al., J. Chem. Phys. 152 154105 (2020);
          URL http://www.quantum-espresso.org", 
     in publications or presentations arising from this work. More details at
     http://www.quantum-espresso.org/quote

     Parallel version (MPI & OpenMP), running on      10 processor cores
     Number of MPI processes:                10
     Threads/MPI process:                     1

     MPI processes distributed on     1 nodes
     11148 MiB available memory on the printing compute node when the environment starts

     Waiting for input...
     Reading input from standard input

     Current dimensions of program PWSCF are:
     Max number of different atomic species (ntypx) = 10
     Max number of k-points (npk) =  40000
     Max angular momentum in pseudopotentials (lmaxx) =  4

     Atomic positions and unit cell read from directory:
     ./work/pwscf.save/
     Atomic positions from file used, from input discarded

     file Bi.pbe-dn-rrkjus_psl.0.2.2.UPF: wavefunction(s)  5D renormalized
     Message from routine setup:
     using ibrav=0 with symmetry is DISCOURAGED, use correct ibrav instead

     R & G space division:  proc/nbgrp/npool/nimage =      10
     Subspace diagonalization in iterative solution of the eigenvalue problem:
     a serial algorithm will be used


     Parallelization info
     --------------------
     sticks:   dense  smooth     PW     G-vecs:    dense   smooth      PW
     Min         241      67     19                15263     2261     353
     Max         243      68     20                15266     2268     360
     Sum        2419     673    199               152645    22645    3585

     Using Slab Decomposition



     bravais-lattice index     =            0
     lattice parameter (alat)  =       8.9235  a.u.
     unit-cell volume          =     970.7179 (a.u.)^3
     number of atoms/cell      =            5
     number of atomic types    =            2
     number of electrons       =        36.00
     number of Kohn-Sham states=           30
     kinetic-energy cutoff     =      31.0000  Ry
     charge density cutoff     =     443.0000  Ry
     Exchange-correlation= PBE
                           (   1   4   3   4   0   0   0)

     celldm(1)=   8.923476  celldm(2)=   0.000000  celldm(3)=   0.000000
     celldm(4)=   0.000000  celldm(5)=   0.000000  celldm(6)=   0.000000

     crystal axes: (cart. coord. in units of alat)
               a(1) = (   0.866025  -0.500000   0.000000 )  
               a(2) = (   0.000000   1.000000   0.000000 )  
               a(3) = (   0.000000   0.000000   1.577467 )  

     reciprocal axes: (cart. coord. in units 2 pi/alat)
               b(1) = (  1.154701  0.000000  0.000000 )  
               b(2) = (  0.577350  1.000000 -0.000000 )  
               b(3) = ( -0.000000  0.000000  0.633928 )  


     PseudoPot. # 1 for Bi read from file:
     ./../../pseudo/psl031_PBE/Bi.pbe-dn-rrkjus_psl.0.2.2.UPF
     MD5 check sum: ee50018096d060f077fb3c062a77be56
     Pseudo is Ultrasoft + core correction, Zval = 15.0
     Generated using "atomic" code by A. Dal Corso  v.5.0.99 svn rev. 10869
     Using radial grid of 1283 points,  6 beta functions with: 
                l(1) =   0
                l(2) =   0
                l(3) =   1
                l(4) =   1
                l(5) =   2
                l(6) =   2
     Q(r) pseudized with 0 coefficients 


     PseudoPot. # 2 for Mg read from file:
     ./../../pseudo/psl031_PBE/Mg.pbe-n-rrkjus_psl.0.3.0.UPF
     MD5 check sum: 5a494cc96b734f5314dbe0b5710da108
     Pseudo is Ultrasoft + core correction, Zval =  2.0
     Generated using "atomic" code by A. Dal Corso  v.5.0.2 svn rev. 10551
     Using radial grid of 1129 points,  4 beta functions with: 
                l(1) =   0
                l(2) =   0
                l(3) =   1
                l(4) =   1
     Q(r) pseudized with 0 coefficients 


     atomic species   valence    mass     pseudopotential
        Bi            15.00   208.98000     Bi( 1.00)
        Mg             2.00    24.30500     Mg( 1.00)

     12 Sym. Ops., with inversion, found


                                    s                        frac. trans.

      isym =  1     identity                                     

 cryst.   s( 1) = (     1          0          0      )
                  (     0          1          0      )
                  (     0          0          1      )

 cart.    s( 1) = (  1.0000000  0.0000000  0.0000000 )
                  (  0.0000000  1.0000000  0.0000000 )
                  (  0.0000000  0.0000000  1.0000000 )


      isym =  2     180 deg rotation - cart. axis [0,1,0]        

 cryst.   s( 2) = (    -1         -1          0      )
                  (     0          1          0      )
                  (     0          0         -1      )

 cart.    s( 2) = ( -1.0000000  0.0000000  0.0000000 )
                  (  0.0000000  1.0000000  0.0000000 )
                  (  0.0000000  0.0000000 -1.0000000 )


      isym =  3     120 deg rotation - cryst. axis [0,0,1]       

 cryst.   s( 3) = (     0          1          0      )
                  (    -1         -1          0      )
                  (     0          0          1      )

 cart.    s( 3) = ( -0.5000000 -0.8660254  0.0000000 )
                  (  0.8660254 -0.5000000  0.0000000 )
                  (  0.0000000  0.0000000  1.0000000 )


      isym =  4     120 deg rotation - cryst. axis [0,0,-1]      

 cryst.   s( 4) = (    -1         -1          0      )
                  (     1          0          0      )
                  (     0          0          1      )

 cart.    s( 4) = ( -0.5000000  0.8660254  0.0000000 )
                  ( -0.8660254 -0.5000000  0.0000000 )
                  (  0.0000000  0.0000000  1.0000000 )


      isym =  5     180 deg rotation - cryst. axis [1,-1,0]      

 cryst.   s( 5) = (     1          0          0      )
                  (    -1         -1          0      )
                  (     0          0         -1      )

 cart.    s( 5) = (  0.5000000 -0.8660254  0.0000000 )
                  ( -0.8660254 -0.5000000  0.0000000 )
                  (  0.0000000  0.0000000 -1.0000000 )


      isym =  6     180 deg rotation - cryst. axis [2,1,0]       

 cryst.   s( 6) = (     0          1          0      )
                  (     1          0          0      )
                  (     0          0         -1      )

 cart.    s( 6) = (  0.5000000  0.8660254  0.0000000 )
                  (  0.8660254 -0.5000000  0.0000000 )
                  (  0.0000000  0.0000000 -1.0000000 )


      isym =  7     inversion                                    

 cryst.   s( 7) = (    -1          0          0      )
                  (     0         -1          0      )
                  (     0          0         -1      )

 cart.    s( 7) = ( -1.0000000  0.0000000  0.0000000 )
                  (  0.0000000 -1.0000000  0.0000000 )
                  (  0.0000000  0.0000000 -1.0000000 )


      isym =  8     inv. 180 deg rotation - cart. axis [0,1,0]   

 cryst.   s( 8) = (     1          1          0      )
                  (     0         -1          0      )
                  (     0          0          1      )

 cart.    s( 8) = (  1.0000000  0.0000000  0.0000000 )
                  (  0.0000000 -1.0000000  0.0000000 )
                  (  0.0000000  0.0000000  1.0000000 )


      isym =  9     inv. 120 deg rotation - cryst. axis [0,0,1]  

 cryst.   s( 9) = (     0         -1          0      )
                  (     1          1          0      )
                  (     0          0         -1      )

 cart.    s( 9) = (  0.5000000  0.8660254  0.0000000 )
                  ( -0.8660254  0.5000000  0.0000000 )
                  (  0.0000000  0.0000000 -1.0000000 )


      isym = 10     inv. 120 deg rotation - cryst. axis [0,0,-1] 

 cryst.   s(10) = (     1          1          0      )
                  (    -1          0          0      )
                  (     0          0         -1      )

 cart.    s(10) = (  0.5000000 -0.8660254  0.0000000 )
                  (  0.8660254  0.5000000  0.0000000 )
                  (  0.0000000  0.0000000 -1.0000000 )


      isym = 11     inv. 180 deg rotation - cryst. axis [1,-1,0] 

 cryst.   s(11) = (    -1          0          0      )
                  (     1          1          0      )
                  (     0          0          1      )

 cart.    s(11) = ( -0.5000000  0.8660254  0.0000000 )
                  (  0.8660254  0.5000000  0.0000000 )
                  (  0.0000000  0.0000000  1.0000000 )


      isym = 12     inv. 180 deg rotation - cryst. axis [2,1,0]  

 cryst.   s(12) = (     0         -1          0      )
                  (    -1          0          0      )
                  (     0          0          1      )

 cart.    s(12) = ( -0.5000000 -0.8660254  0.0000000 )
                  ( -0.8660254  0.5000000  0.0000000 )
                  (  0.0000000  0.0000000  1.0000000 )


   Cartesian axes

     site n.     atom                  positions (alat units)
         1           Bi  tau(   1) = (   0.2886751   0.5000000   0.3480949  )
         2           Bi  tau(   2) = (   0.5773503  -0.0000000   1.2293721  )
         3           Mg  tau(   3) = (   0.2886751   0.5000000   0.9924413  )
         4           Mg  tau(   4) = (   0.5773503  -0.0000000   0.5850257  )
         5           Mg  tau(   5) = (   0.0000000   0.0000000   0.0000000  )

   Crystallographic axes

     site n.     atom                  positions (cryst. coord.)
         1           Bi  tau(   1) = (  0.3333333  0.6666667  0.2206670  )
         2           Bi  tau(   2) = (  0.6666667  0.3333333  0.7793330  )
         3           Mg  tau(   3) = (  0.3333333  0.6666667  0.6291360  )
         4           Mg  tau(   4) = (  0.6666667  0.3333333  0.3708640  )
         5           Mg  tau(   5) = (  0.0000000  0.0000000  0.0000000  )

     number of k points=    81  Methfessel-Paxton smearing, width (Ry)=  0.0100
                       cart. coord. in units 2pi/alat
        k(    1) = (   0.0000000   0.0000000   0.0000000), wk =   0.0246914
        k(    2) = (   0.0288675   0.0000000   0.0000000), wk =   0.0246914
        k(    3) = (   0.0577350   0.0000000   0.0000000), wk =   0.0246914
        k(    4) = (   0.0866025   0.0000000   0.0000000), wk =   0.0246914
        k(    5) = (   0.1154701   0.0000000   0.0000000), wk =   0.0246914
        k(    6) = (   0.1443376   0.0000000   0.0000000), wk =   0.0246914
        k(    7) = (   0.1732051   0.0000000   0.0000000), wk =   0.0246914
        k(    8) = (   0.2020726   0.0000000   0.0000000), wk =   0.0246914
        k(    9) = (   0.2309401   0.0000000   0.0000000), wk =   0.0246914
        k(   10) = (   0.2598076   0.0000000   0.0000000), wk =   0.0246914
        k(   11) = (   0.2886751   0.0000000   0.0000000), wk =   0.0246914
        k(   12) = (   0.3175426   0.0000000   0.0000000), wk =   0.0246914
        k(   13) = (   0.3464102   0.0000000   0.0000000), wk =   0.0246914
        k(   14) = (   0.3752777   0.0000000   0.0000000), wk =   0.0246914
        k(   15) = (   0.4041452   0.0000000   0.0000000), wk =   0.0246914
        k(   16) = (   0.4330127   0.0000000   0.0000000), wk =   0.0246914
        k(   17) = (   0.4618802   0.0000000   0.0000000), wk =   0.0246914
        k(   18) = (   0.4907477   0.0000000   0.0000000), wk =   0.0246914
        k(   19) = (   0.5196152   0.0000000   0.0000000), wk =   0.0246914
        k(   20) = (   0.5484828   0.0000000   0.0000000), wk =   0.0246914
        k(   21) = (   0.5773503   0.0000000   0.0000000), wk =   0.0246914
        k(   22) = (   0.5773214   0.0166500   0.0000000), wk =   0.0246914
        k(   23) = (   0.5772925   0.0333000   0.0000000), wk =   0.0246914
        k(   24) = (   0.5772637   0.0499500   0.0000000), wk =   0.0246914
        k(   25) = (   0.5772348   0.0666000   0.0000000), wk =   0.0246914
        k(   26) = (   0.5772059   0.0832500   0.0000000), wk =   0.0246914
        k(   27) = (   0.5771771   0.0999000   0.0000000), wk =   0.0246914
        k(   28) = (   0.5771482   0.1165500   0.0000000), wk =   0.0246914
        k(   29) = (   0.5771193   0.1332000   0.0000000), wk =   0.0246914
        k(   30) = (   0.5770905   0.1498500   0.0000000), wk =   0.0246914
        k(   31) = (   0.5770616   0.1665000   0.0000000), wk =   0.0246914
        k(   32) = (   0.5770327   0.1831500   0.0000000), wk =   0.0246914
        k(   33) = (   0.5770039   0.1998000   0.0000000), wk =   0.0246914
        k(   34) = (   0.5769750   0.2164500   0.0000000), wk =   0.0246914
        k(   35) = (   0.5769461   0.2331000   0.0000000), wk =   0.0246914
        k(   36) = (   0.5769173   0.2497500   0.0000000), wk =   0.0246914
        k(   37) = (   0.5768884   0.2664000   0.0000000), wk =   0.0246914
        k(   38) = (   0.5768595   0.2830500   0.0000000), wk =   0.0246914
        k(   39) = (   0.5768307   0.2997000   0.0000000), wk =   0.0246914
        k(   40) = (   0.5768018   0.3163500   0.0000000), wk =   0.0246914
        k(   41) = (   0.5767729   0.3330000   0.0000000), wk =   0.0246914
        k(   42) = (   0.5479343   0.3163500   0.0000000), wk =   0.0246914
        k(   43) = (   0.5190956   0.2997000   0.0000000), wk =   0.0246914
        k(   44) = (   0.4902570   0.2830500   0.0000000), wk =   0.0246914
        k(   45) = (   0.4614183   0.2664000   0.0000000), wk =   0.0246914
        k(   46) = (   0.4325797   0.2497500   0.0000000), wk =   0.0246914
        k(   47) = (   0.4037410   0.2331000   0.0000000), wk =   0.0246914
        k(   48) = (   0.3749024   0.2164500   0.0000000), wk =   0.0246914
        k(   49) = (   0.3460638   0.1998000   0.0000000), wk =   0.0246914
        k(   50) = (   0.3172251   0.1831500   0.0000000), wk =   0.0246914
        k(   51) = (   0.2883865   0.1665000   0.0000000), wk =   0.0246914
        k(   52) = (   0.2595478   0.1498500   0.0000000), wk =   0.0246914
        k(   53) = (   0.2307092   0.1332000   0.0000000), wk =   0.0246914
        k(   54) = (   0.2018705   0.1165500   0.0000000), wk =   0.0246914
        k(   55) = (   0.1730319   0.0999000   0.0000000), wk =   0.0246914
        k(   56) = (   0.1441932   0.0832500   0.0000000), wk =   0.0246914
        k(   57) = (   0.1153546   0.0666000   0.0000000), wk =   0.0246914
        k(   58) = (   0.0865159   0.0499500   0.0000000), wk =   0.0246914
        k(   59) = (   0.0576773   0.0333000   0.0000000), wk =   0.0246914
        k(   60) = (   0.0288386   0.0166500   0.0000000), wk =   0.0246914
        k(   61) = (   0.0000000   0.0000000   0.0000000), wk =   0.0246914
        k(   62) = (   0.0000000   0.0000000   0.0158482), wk =   0.0246914
        k(   63) = (   0.0000000   0.0000000   0.0316964), wk =   0.0246914
        k(   64) = (   0.0000000   0.0000000   0.0475446), wk =   0.0246914
        k(   65) = (   0.0000000   0.0000000   0.0633928), wk =   0.0246914
        k(   66) = (   0.0000000   0.0000000   0.0792410), wk =   0.0246914
        k(   67) = (   0.0000000   0.0000000   0.0950892), wk =   0.0246914
        k(   68) = (   0.0000000   0.0000000   0.1109373), wk =   0.0246914
        k(   69) = (   0.0000000   0.0000000   0.1267855), wk =   0.0246914
        k(   70) = (   0.0000000   0.0000000   0.1426337), wk =   0.0246914
        k(   71) = (   0.0000000   0.0000000   0.1584819), wk =   0.0246914
        k(   72) = (   0.0000000   0.0000000   0.1743301), wk =   0.0246914
        k(   73) = (   0.0000000   0.0000000   0.1901783), wk =   0.0246914
        k(   74) = (   0.0000000   0.0000000   0.2060265), wk =   0.0246914
        k(   75) = (   0.0000000   0.0000000   0.2218747), wk =   0.0246914
        k(   76) = (   0.0000000   0.0000000   0.2377229), wk =   0.0246914
        k(   77) = (   0.0000000   0.0000000   0.2535711), wk =   0.0246914
        k(   78) = (   0.0000000   0.0000000   0.2694193), wk =   0.0246914
        k(   79) = (   0.0000000   0.0000000   0.2852675), wk =   0.0246914
        k(   80) = (   0.0000000   0.0000000   0.3011156), wk =   0.0246914
        k(   81) = (   0.0000000   0.0000000   0.3169638), wk =   0.0246914

                       cryst. coord.
        k(    1) = (   0.0000000   0.0000000   0.0000000), wk =   0.0246914
        k(    2) = (   0.0250000   0.0000000   0.0000000), wk =   0.0246914
        k(    3) = (   0.0500000   0.0000000   0.0000000), wk =   0.0246914
        k(    4) = (   0.0750000   0.0000000   0.0000000), wk =   0.0246914
        k(    5) = (   0.1000000   0.0000000   0.0000000), wk =   0.0246914
        k(    6) = (   0.1250000   0.0000000   0.0000000), wk =   0.0246914
        k(    7) = (   0.1500000   0.0000000   0.0000000), wk =   0.0246914
        k(    8) = (   0.1750000   0.0000000   0.0000000), wk =   0.0246914
        k(    9) = (   0.2000000   0.0000000   0.0000000), wk =   0.0246914
        k(   10) = (   0.2250000   0.0000000   0.0000000), wk =   0.0246914
        k(   11) = (   0.2500000   0.0000000   0.0000000), wk =   0.0246914
        k(   12) = (   0.2750000   0.0000000   0.0000000), wk =   0.0246914
        k(   13) = (   0.3000000   0.0000000   0.0000000), wk =   0.0246914
        k(   14) = (   0.3250000   0.0000000   0.0000000), wk =   0.0246914
        k(   15) = (   0.3500000   0.0000000   0.0000000), wk =   0.0246914
        k(   16) = (   0.3750000   0.0000000   0.0000000), wk =   0.0246914
        k(   17) = (   0.4000000   0.0000000   0.0000000), wk =   0.0246914
        k(   18) = (   0.4250000   0.0000000   0.0000000), wk =   0.0246914
        k(   19) = (   0.4500000   0.0000000   0.0000000), wk =   0.0246914
        k(   20) = (   0.4750000   0.0000000   0.0000000), wk =   0.0246914
        k(   21) = (   0.5000000   0.0000000   0.0000000), wk =   0.0246914
        k(   22) = (   0.4916500   0.0166500   0.0000000), wk =   0.0246914
        k(   23) = (   0.4833000   0.0333000   0.0000000), wk =   0.0246914
        k(   24) = (   0.4749500   0.0499500   0.0000000), wk =   0.0246914
        k(   25) = (   0.4666000   0.0666000   0.0000000), wk =   0.0246914
        k(   26) = (   0.4582500   0.0832500   0.0000000), wk =   0.0246914
        k(   27) = (   0.4499000   0.0999000   0.0000000), wk =   0.0246914
        k(   28) = (   0.4415500   0.1165500   0.0000000), wk =   0.0246914
        k(   29) = (   0.4332000   0.1332000   0.0000000), wk =   0.0246914
        k(   30) = (   0.4248500   0.1498500   0.0000000), wk =   0.0246914
        k(   31) = (   0.4165000   0.1665000   0.0000000), wk =   0.0246914
        k(   32) = (   0.4081500   0.1831500   0.0000000), wk =   0.0246914
        k(   33) = (   0.3998000   0.1998000   0.0000000), wk =   0.0246914
        k(   34) = (   0.3914500   0.2164500   0.0000000), wk =   0.0246914
        k(   35) = (   0.3831000   0.2331000   0.0000000), wk =   0.0246914
        k(   36) = (   0.3747500   0.2497500   0.0000000), wk =   0.0246914
        k(   37) = (   0.3664000   0.2664000   0.0000000), wk =   0.0246914
        k(   38) = (   0.3580500   0.2830500   0.0000000), wk =   0.0246914
        k(   39) = (   0.3497000   0.2997000   0.0000000), wk =   0.0246914
        k(   40) = (   0.3413500   0.3163500   0.0000000), wk =   0.0246914
        k(   41) = (   0.3330000   0.3330000   0.0000000), wk =   0.0246914
        k(   42) = (   0.3163500   0.3163500   0.0000000), wk =   0.0246914
        k(   43) = (   0.2997000   0.2997000   0.0000000), wk =   0.0246914
        k(   44) = (   0.2830500   0.2830500   0.0000000), wk =   0.0246914
        k(   45) = (   0.2664000   0.2664000   0.0000000), wk =   0.0246914
        k(   46) = (   0.2497500   0.2497500   0.0000000), wk =   0.0246914
        k(   47) = (   0.2331000   0.2331000   0.0000000), wk =   0.0246914
        k(   48) = (   0.2164500   0.2164500   0.0000000), wk =   0.0246914
        k(   49) = (   0.1998000   0.1998000   0.0000000), wk =   0.0246914
        k(   50) = (   0.1831500   0.1831500   0.0000000), wk =   0.0246914
        k(   51) = (   0.1665000   0.1665000   0.0000000), wk =   0.0246914
        k(   52) = (   0.1498500   0.1498500   0.0000000), wk =   0.0246914
        k(   53) = (   0.1332000   0.1332000   0.0000000), wk =   0.0246914
        k(   54) = (   0.1165500   0.1165500   0.0000000), wk =   0.0246914
        k(   55) = (   0.0999000   0.0999000   0.0000000), wk =   0.0246914
        k(   56) = (   0.0832500   0.0832500   0.0000000), wk =   0.0246914
        k(   57) = (   0.0666000   0.0666000   0.0000000), wk =   0.0246914
        k(   58) = (   0.0499500   0.0499500   0.0000000), wk =   0.0246914
        k(   59) = (   0.0333000   0.0333000   0.0000000), wk =   0.0246914
        k(   60) = (   0.0166500   0.0166500   0.0000000), wk =   0.0246914
        k(   61) = (   0.0000000   0.0000000   0.0000000), wk =   0.0246914
        k(   62) = (   0.0000000   0.0000000   0.0250000), wk =   0.0246914
        k(   63) = (   0.0000000   0.0000000   0.0500000), wk =   0.0246914
        k(   64) = (   0.0000000   0.0000000   0.0750000), wk =   0.0246914
        k(   65) = (   0.0000000   0.0000000   0.1000000), wk =   0.0246914
        k(   66) = (   0.0000000   0.0000000   0.1250000), wk =   0.0246914
        k(   67) = (   0.0000000   0.0000000   0.1500000), wk =   0.0246914
        k(   68) = (   0.0000000   0.0000000   0.1750000), wk =   0.0246914
        k(   69) = (   0.0000000   0.0000000   0.2000000), wk =   0.0246914
        k(   70) = (   0.0000000   0.0000000   0.2250000), wk =   0.0246914
        k(   71) = (   0.0000000   0.0000000   0.2500000), wk =   0.0246914
        k(   72) = (   0.0000000   0.0000000   0.2750000), wk =   0.0246914
        k(   73) = (   0.0000000   0.0000000   0.3000000), wk =   0.0246914
        k(   74) = (   0.0000000   0.0000000   0.3250000), wk =   0.0246914
        k(   75) = (   0.0000000   0.0000000   0.3500000), wk =   0.0246914
        k(   76) = (   0.0000000   0.0000000   0.3750000), wk =   0.0246914
        k(   77) = (   0.0000000   0.0000000   0.4000000), wk =   0.0246914
        k(   78) = (   0.0000000   0.0000000   0.4250000), wk =   0.0246914
        k(   79) = (   0.0000000   0.0000000   0.4500000), wk =   0.0246914
        k(   80) = (   0.0000000   0.0000000   0.4750000), wk =   0.0246914
        k(   81) = (   0.0000000   0.0000000   0.5000000), wk =   0.0246914

     Dense  grid:   152645 G-vectors     FFT dimensions: (  60,  60,  96)

     Smooth grid:    22645 G-vectors     FFT dimensions: (  32,  32,  50)

     Dynamical RAM for                 wfc:       0.13 MB

     Dynamical RAM for     wfc (w. buffer):      10.59 MB

     Dynamical RAM for           str. fact:       0.47 MB

     Dynamical RAM for           local pot:       0.00 MB

     Dynamical RAM for          nlocal pot:       0.26 MB

     Dynamical RAM for                qrad:       3.38 MB

     Dynamical RAM for          rho,v,vnew:       1.52 MB

     Dynamical RAM for           G-vectors:       0.89 MB

     Dynamical RAM for          h,s,v(r/c):       0.16 MB

     Dynamical RAM for          <psi|beta>:       0.03 MB

     Dynamical RAM for                 psi:       0.26 MB

     Dynamical RAM for                hpsi:       0.26 MB

     Dynamical RAM for                spsi:       0.26 MB

     Dynamical RAM for      wfcinit/wfcrot:       0.28 MB

     Dynamical RAM for           addusdens:      44.02 MB

     Estimated static dynamical RAM per process >      19.17 MB

     Estimated max dynamical RAM per process >      63.20 MB

     Estimated total dynamical RAM >     631.95 MB

     The potential is recalculated from file :
     ./work/pwscf.save/charge-density

     Starting wfcs are   30 randomized atomic wfcs

     Band Structure Calculation
     Davidson diagonalization with overlap

     Computing kpt #:     1  of    81
     total cpu time spent up to now is        1.3 secs

     Computing kpt #:     2  of    81
     total cpu time spent up to now is        1.3 secs

     Computing kpt #:     3  of    81
     total cpu time spent up to now is        1.4 secs

     Computing kpt #:     4  of    81
     total cpu time spent up to now is        1.5 secs

     Computing kpt #:     5  of    81
     total cpu time spent up to now is        1.6 secs

     Computing kpt #:     6  of    81
     total cpu time spent up to now is        1.6 secs

     Computing kpt #:     7  of    81
     total cpu time spent up to now is        1.7 secs

     Computing kpt #:     8  of    81
     total cpu time spent up to now is        1.8 secs

     Computing kpt #:     9  of    81
     total cpu time spent up to now is        1.9 secs

     Computing kpt #:    10  of    81
     total cpu time spent up to now is        2.0 secs

     Computing kpt #:    11  of    81
     total cpu time spent up to now is        2.1 secs

     Computing kpt #:    12  of    81
     total cpu time spent up to now is        2.2 secs

     Computing kpt #:    13  of    81
     total cpu time spent up to now is        2.3 secs

     Computing kpt #:    14  of    81
     total cpu time spent up to now is        2.3 secs

     Computing kpt #:    15  of    81
     total cpu time spent up to now is        2.4 secs

     Computing kpt #:    16  of    81
     total cpu time spent up to now is        2.5 secs

     Computing kpt #:    17  of    81
     total cpu time spent up to now is        2.6 secs

     Computing kpt #:    18  of    81
     total cpu time spent up to now is        2.7 secs

     Computing kpt #:    19  of    81
     total cpu time spent up to now is        2.8 secs

     Computing kpt #:    20  of    81
     total cpu time spent up to now is        2.9 secs

     Computing kpt #:    21  of    81
     total cpu time spent up to now is        2.9 secs

     Computing kpt #:    22  of    81
     total cpu time spent up to now is        3.0 secs

     Computing kpt #:    23  of    81
     total cpu time spent up to now is        3.1 secs

     Computing kpt #:    24  of    81
     total cpu time spent up to now is        3.2 secs

     Computing kpt #:    25  of    81
     total cpu time spent up to now is        3.3 secs

     Computing kpt #:    26  of    81
     total cpu time spent up to now is        3.3 secs

     Computing kpt #:    27  of    81
     total cpu time spent up to now is        3.4 secs

     Computing kpt #:    28  of    81
     total cpu time spent up to now is        3.5 secs

     Computing kpt #:    29  of    81
     total cpu time spent up to now is        3.6 secs

     Computing kpt #:    30  of    81
     total cpu time spent up to now is        3.6 secs

     Computing kpt #:    31  of    81
     total cpu time spent up to now is        3.7 secs

     Computing kpt #:    32  of    81
     total cpu time spent up to now is        3.8 secs

     Computing kpt #:    33  of    81
     total cpu time spent up to now is        3.9 secs

     Computing kpt #:    34  of    81
     total cpu time spent up to now is        4.0 secs

     Computing kpt #:    35  of    81
     total cpu time spent up to now is        4.0 secs

     Computing kpt #:    36  of    81
     total cpu time spent up to now is        4.1 secs

     Computing kpt #:    37  of    81
     total cpu time spent up to now is        4.2 secs

     Computing kpt #:    38  of    81
     total cpu time spent up to now is        4.3 secs

     Computing kpt #:    39  of    81
     total cpu time spent up to now is        4.3 secs

     Computing kpt #:    40  of    81
     total cpu time spent up to now is        4.4 secs

     Computing kpt #:    41  of    81
     total cpu time spent up to now is        4.5 secs

     Computing kpt #:    42  of    81
     total cpu time spent up to now is        4.6 secs

     Computing kpt #:    43  of    81
     total cpu time spent up to now is        4.6 secs

     Computing kpt #:    44  of    81
     total cpu time spent up to now is        4.7 secs

     Computing kpt #:    45  of    81
     total cpu time spent up to now is        4.8 secs

     Computing kpt #:    46  of    81
     total cpu time spent up to now is        4.9 secs

     Computing kpt #:    47  of    81
     total cpu time spent up to now is        4.9 secs

     Computing kpt #:    48  of    81
     total cpu time spent up to now is        5.0 secs

     Computing kpt #:    49  of    81
     total cpu time spent up to now is        5.1 secs

     Computing kpt #:    50  of    81
     total cpu time spent up to now is        5.2 secs

     Computing kpt #:    51  of    81
     total cpu time spent up to now is        5.3 secs

     Computing kpt #:    52  of    81
     total cpu time spent up to now is        5.3 secs

     Computing kpt #:    53  of    81
     total cpu time spent up to now is        5.4 secs

     Computing kpt #:    54  of    81
     total cpu time spent up to now is        5.5 secs

     Computing kpt #:    55  of    81
     total cpu time spent up to now is        5.6 secs

     Computing kpt #:    56  of    81
     total cpu time spent up to now is        5.6 secs

     Computing kpt #:    57  of    81
     total cpu time spent up to now is        5.7 secs

     Computing kpt #:    58  of    81
     total cpu time spent up to now is        5.8 secs

     Computing kpt #:    59  of    81
     total cpu time spent up to now is        5.8 secs

     Computing kpt #:    60  of    81
     total cpu time spent up to now is        5.9 secs

     Computing kpt #:    61  of    81
     total cpu time spent up to now is        6.0 secs

     Computing kpt #:    62  of    81
     total cpu time spent up to now is        6.1 secs

     Computing kpt #:    63  of    81
     total cpu time spent up to now is        6.2 secs

     Computing kpt #:    64  of    81
     total cpu time spent up to now is        6.2 secs

     Computing kpt #:    65  of    81
     total cpu time spent up to now is        6.3 secs

     Computing kpt #:    66  of    81
     total cpu time spent up to now is        6.4 secs

     Computing kpt #:    67  of    81
     total cpu time spent up to now is        6.4 secs

     Computing kpt #:    68  of    81
     total cpu time spent up to now is        6.5 secs

     Computing kpt #:    69  of    81
     total cpu time spent up to now is        6.6 secs

     Computing kpt #:    70  of    81
     total cpu time spent up to now is        6.7 secs

     Computing kpt #:    71  of    81
     total cpu time spent up to now is        6.7 secs

     Computing kpt #:    72  of    81
     total cpu time spent up to now is        6.8 secs

     Computing kpt #:    73  of    81
     total cpu time spent up to now is        6.9 secs

     Computing kpt #:    74  of    81
     total cpu time spent up to now is        6.9 secs

     Computing kpt #:    75  of    81
     total cpu time spent up to now is        7.0 secs

     Computing kpt #:    76  of    81
     total cpu time spent up to now is        7.1 secs

     Computing kpt #:    77  of    81
     total cpu time spent up to now is        7.1 secs

     Computing kpt #:    78  of    81
     total cpu time spent up to now is        7.2 secs

     Computing kpt #:    79  of    81
     total cpu time spent up to now is        7.3 secs

     Computing kpt #:    80  of    81
     total cpu time spent up to now is        7.3 secs

     Computing kpt #:    81  of    81
     total cpu time spent up to now is        7.4 secs

     ethr =  1.03E-06,  avg # of iterations = 23.3

     total cpu time spent up to now is        7.4 secs

     End of band structure calculation

          k = 0.0000 0.0000 0.0000 (  2827 PWs)   bands (ev):

   -15.7390 -15.7390 -15.7375 -15.7375 -15.7222 -15.7213 -15.7090 -15.7090
   -15.6982 -15.6982  -4.9204  -4.0584   1.7052   5.4823   5.4823   6.1719
     6.1767   6.1767   6.4262   7.2193   9.5167   9.5167  10.2293  10.4443
    10.4443  10.8155  11.5706  11.5785  11.6772  11.6772

          k = 0.0289 0.0000 0.0000 (  2821 PWs)   bands (ev):

   -15.7391 -15.7390 -15.7375 -15.7374 -15.7222 -15.7213 -15.7090 -15.7090
   -15.6983 -15.6982  -4.9172  -4.0569   1.7105   5.4147   5.4669   5.8899
     6.1801   6.4348   6.4663   7.2655   9.4562   9.5247  10.2561  10.3916
    10.4450  10.8625  11.4479  11.5045  11.6423  11.7305

          k = 0.0577 0.0000 0.0000 (  2821 PWs)   bands (ev):

   -15.7392 -15.7390 -15.7374 -15.7373 -15.7221 -15.7213 -15.7090 -15.7090
   -15.6983 -15.6982  -4.9076  -4.0523   1.7264   5.2354   5.4232   5.6221
     6.1879   6.4477   6.7519   7.3954   9.3124   9.5486  10.2607  10.3172
    10.4436  10.9617  11.2827  11.4394  11.7153  11.8404

          k = 0.0866 0.0000 0.0000 (  2821 PWs)   bands (ev):

   -15.7393 -15.7389 -15.7374 -15.7372 -15.7220 -15.7212 -15.7089 -15.7089
   -15.6984 -15.6981  -4.8916  -4.0447   1.7528   4.9898   5.3575   5.3711
     6.1948   6.4435   7.0235   7.5818   9.1440   9.5880  10.1015  10.3890
    10.4329  10.9061  11.3129  11.4283  11.6867  12.0822

          k = 0.1155 0.0000 0.0000 (  2825 PWs)   bands (ev):

   -15.7395 -15.7388 -15.7373 -15.7369 -15.7219 -15.7211 -15.7088 -15.7087
   -15.6986 -15.6980  -4.8695  -4.0345   1.7896   4.7145   5.1302   5.2768
     6.1958   6.4177   7.2752   7.7796   8.9993   9.6397   9.9396  10.4121
    10.4682  10.7250  11.4384  11.4784  11.7250  12.3629

          k = 0.1443 0.0000 0.0000 (  2825 PWs)   bands (ev):

   -15.7397 -15.7387 -15.7373 -15.7367 -15.7218 -15.7209 -15.7087 -15.7086
   -15.6987 -15.6979  -4.8415  -4.0219   1.8368   4.4307   4.8955   5.1868
     6.1878   6.3711   7.5031   7.9206   8.9373   9.6948   9.7921  10.3945
    10.4672  10.6387  11.4368  11.5854  11.9408  12.5765

          k = 0.1732 0.0000 0.0000 (  2823 PWs)   bands (ev):

   -15.7400 -15.7386 -15.7372 -15.7363 -15.7216 -15.7207 -15.7085 -15.7084
   -15.6990 -15.6977  -4.8079  -4.0073   1.8941   4.1489   4.6665   5.0922
     6.1697   6.3048   7.7024   7.9374   9.0105   9.6728   9.7360  10.3175
    10.4051  10.7425  11.3990  11.7388  12.2305  12.8121

          k = 0.2021 0.0000 0.0000 (  2816 PWs)   bands (ev):

   -15.7403 -15.7385 -15.7372 -15.7360 -15.7214 -15.7205 -15.7083 -15.7082
   -15.6992 -15.6975  -4.7690  -3.9913   1.9613   3.8748   4.4440   4.9962
     6.1420   6.2193   7.8374   7.8754   9.1682   9.6134   9.7445  10.1817
    10.4694  10.8805  11.3819  11.9284  12.5431  13.0591

          k = 0.2309 0.0000 0.0000 (  2826 PWs)   bands (ev):

   -15.7406 -15.7383 -15.7371 -15.7356 -15.7213 -15.7203 -15.7081 -15.7079
   -15.6994 -15.6973  -4.7254  -3.9744   2.0381   3.6118   4.2296   4.9014
     6.1064   6.1147   7.7026   7.9941   9.2520   9.7009   9.7175  10.0940
    10.5942  11.0104  11.4232  12.1460  12.8648  13.3162

          k = 0.2598 0.0000 0.0000 (  2826 PWs)   bands (ev):

   -15.7409 -15.7382 -15.7371 -15.7352 -15.7211 -15.7200 -15.7078 -15.7077
   -15.6997 -15.6971  -4.6776  -3.9573   2.1240   3.3627   4.0247   4.8097
     5.9913   6.0650   7.5499   8.0751   9.2200   9.6669   9.8928  10.1054
    10.7690  11.0964  11.5624  12.3857  13.1858  13.5825

          k = 0.2887 0.0000 0.0000 (  2814 PWs)   bands (ev):

   -15.7412 -15.7381 -15.7371 -15.7348 -15.7209 -15.7198 -15.7075 -15.7074
   -15.7000 -15.6969  -4.6263  -3.9407   2.2180   3.1299   3.8308   4.7226
     5.8504   6.0199   7.4008   8.1166   9.1509   9.6055   9.9844  10.3179
    10.9811  11.1534  11.7887  12.6424  13.4880  13.8562

          k = 0.3175 0.0000 0.0000 (  2812 PWs)   bands (ev):

   -15.7415 -15.7380 -15.7371 -15.7344 -15.7208 -15.7195 -15.7072 -15.7071
   -15.7003 -15.6967  -4.5722  -3.9255   2.3180   2.9166   3.6494   4.6413
     5.6939   5.9734   7.2625   8.1272   9.0720   9.5411  10.0544  10.5956
    11.2214  11.2271  12.0657  12.9118  13.6669  13.9233

          k = 0.3464 0.0000 0.0000 (  2822 PWs)   bands (ev):

   -15.7418 -15.7379 -15.7371 -15.7340 -15.7207 -15.7192 -15.7069 -15.7068
   -15.7006 -15.6965  -4.5164  -3.9123   2.4158   2.7318   3.4821   4.5667
     5.5249   5.9273   7.1381   8.1174   8.9924   9.4786  10.1498  10.8351
    11.3666  11.4842  12.3688  13.1890  13.5297  13.8791

          k = 0.3753 0.0000 0.0000 (  2828 PWs)   bands (ev):

   -15.7421 -15.7378 -15.7371 -15.7336 -15.7206 -15.7190 -15.7066 -15.7065
   -15.7010 -15.6963  -4.4598  -3.9020   2.4483   2.6388   3.3306   4.4995
     5.3470   5.8833   7.0289   8.0962   8.9170   9.4204  10.2674  10.9935
    11.6071  11.7651  12.6714  13.3128  13.4678  13.7753

          k = 0.4041 0.0000 0.0000 (  2838 PWs)   bands (ev):

   -15.7423 -15.7377 -15.7371 -15.7333 -15.7205 -15.7187 -15.7063 -15.7061
   -15.7013 -15.6961  -4.4038  -3.8951   2.3378   2.7147   3.1970   4.4402
     5.1645   5.8427   6.9351   8.0701   8.8491   9.3682  10.4009  11.0959
    11.9185  12.0608  12.8932  13.1272  13.7046  13.7388

          k = 0.4330 0.0000 0.0000 (  2846 PWs)   bands (ev):

   -15.7426 -15.7376 -15.7371 -15.7330 -15.7204 -15.7185 -15.7061 -15.7057
   -15.7016 -15.6959  -4.3497  -3.8920   2.2110   2.8287   3.0860   4.3894
     4.9821   5.8066   6.8564   8.0435   8.7904   9.3230  10.5454  11.1769
    12.2558  12.3679  12.8013  13.1190  13.7846  13.9860

          k = 0.4619 0.0000 0.0000 (  2854 PWs)   bands (ev):

   -15.7428 -15.7375 -15.7371 -15.7327 -15.7204 -15.7183 -15.7059 -15.7054
   -15.7019 -15.6957  -4.2994  -3.8928   2.1013   2.9137   3.0304   4.3473
     4.8051   5.7760   6.7925   8.0190   8.7417   9.2854  10.6969  11.2479
    12.5734  12.6044  12.6830  13.1023  14.0226  14.1822

          k = 0.4907 0.0000 0.0000 (  2842 PWs)   bands (ev):

   -15.7429 -15.7375 -15.7371 -15.7325 -15.7203 -15.7181 -15.7057 -15.7050
   -15.7022 -15.6956  -4.2550  -3.8967   2.0139   2.8797   3.1119   4.3144
     4.6409   5.7516   6.7431   7.9986   8.7037   9.2558  10.8517  11.3060
    12.4164  12.7386  13.0018  13.2052  14.2854  14.2876

          k = 0.5196 0.0000 0.0000 (  2826 PWs)   bands (ev):

   -15.7430 -15.7375 -15.7371 -15.7324 -15.7203 -15.7180 -15.7056 -15.7047
   -15.7025 -15.6955  -4.2193  -3.9024   1.9505   2.8299   3.2173   4.2907
     4.5006   5.7337   6.7080   7.9833   8.6765   9.2345  11.0042  11.3389
    12.2607  12.7097  13.3181  13.5070  14.2688  14.4590

          k = 0.5485 0.0000 0.0000 (  2832 PWs)   bands (ev):

   -15.7431 -15.7375 -15.7371 -15.7323 -15.7203 -15.7179 -15.7055 -15.7045
   -15.7027 -15.6955  -4.1957  -3.9076   1.9122   2.7978   3.2974   4.2764
     4.4012   5.7229   6.6870   7.9739   8.6602   9.2216  11.1450  11.3281
    12.1560  12.6551  13.6226  13.8489  14.1293  14.4382

          k = 0.5774 0.0000 0.0000 (  2822 PWs)   bands (ev):

   -15.7431 -15.7374 -15.7371 -15.7323 -15.7203 -15.7179 -15.7055 -15.7044
   -15.7028 -15.6955  -4.1874  -3.9097   1.8994   2.7868   3.3280   4.2717
     4.3642   5.7192   6.6800   7.9707   8.6547   9.2173  11.2475  11.2727
    12.1192  12.6327  13.8817  13.9216  14.0922  14.2918

          k = 0.5773 0.0166 0.0000 (  2818 PWs)   bands (ev):

   -15.7431 -15.7374 -15.7371 -15.7323 -15.7203 -15.7179 -15.7055 -15.7043
   -15.7028 -15.6955  -4.1867  -3.9097   1.9009   2.7880   3.3297   4.2548
     4.3685   5.7034   6.6955   7.9910   8.6209   9.2534  11.2493  11.2767
    12.1182  12.6349  13.8071  13.8656  14.1489  14.3358

          k = 0.5773 0.0333 0.0000 (  2830 PWs)   bands (ev):

   -15.7431 -15.7375 -15.7371 -15.7323 -15.7203 -15.7179 -15.7056 -15.7043
   -15.7028 -15.6955  -4.1847  -3.9097   1.9056   2.7915   3.3348   4.2104
     4.3760   5.6575   6.7407   8.0501   8.5389   9.3425  11.2550  11.2889
    12.1149  12.6416  13.6676  13.7434  14.2334  14.4183

          k = 0.5773 0.0499 0.0000 (  2832 PWs)   bands (ev):

   -15.7430 -15.7375 -15.7371 -15.7323 -15.7202 -15.7179 -15.7058 -15.7041
   -15.7028 -15.6955  -4.1815  -3.9097   1.9134   2.7973   3.3433   4.1465
     4.3819   5.5861   6.8112   8.1433   8.4375   9.4570  11.2644  11.3092
    12.1091  12.6525  13.5109  13.5990  14.2951  14.4828

          k = 0.5772 0.0666 0.0000 (  2832 PWs)   bands (ev):

   -15.7430 -15.7375 -15.7370 -15.7323 -15.7202 -15.7179 -15.7059 -15.7040
   -15.7027 -15.6956  -4.1769  -3.9098   1.9242   2.8054   3.3552   4.0675
     4.3855   5.4951   6.9003   8.2648   8.3344   9.5812  11.2777  11.3377
    12.1001  12.6671  13.3479  13.4477  14.3226  14.4942

          k = 0.5772 0.0832 0.0000 (  2830 PWs)   bands (ev):

   -15.7429 -15.7375 -15.7370 -15.7324 -15.7201 -15.7179 -15.7061 -15.7038
   -15.7026 -15.6957  -4.1712  -3.9100   1.9379   2.8155   3.3705   3.9773
     4.3869   5.3902   6.9989   8.2418   8.4088   9.7073  11.2948  11.3743
    12.0871  12.6840  13.1840  13.2958  14.3148  14.4377

          k = 0.5772 0.0999 0.0000 (  2830 PWs)   bands (ev):

   -15.7428 -15.7376 -15.7370 -15.7324 -15.7200 -15.7179 -15.7062 -15.7037
   -15.7026 -15.6958  -4.1642  -3.9103   1.9546   2.8276   3.3892   3.8795
     4.3864   5.2763   7.0943   8.1722   8.5700   9.8311  11.3157  11.4189
    12.0686  12.6977  13.0273  13.1471  14.2776  14.3314

          k = 0.5771 0.1165 0.0000 (  2830 PWs)   bands (ev):

   -15.7426 -15.7376 -15.7369 -15.7325 -15.7199 -15.7180 -15.7064 -15.7035
   -15.7025 -15.6959  -4.1561  -3.9108   1.9740   2.8414   3.4113   3.7772
     4.3840   5.1574   7.1698   8.1415   8.7443   9.9497  11.3406  11.4708
    12.0429  12.6839  12.9032  13.0047  14.2001  14.2199

          k = 0.5771 0.1332 0.0000 (  2830 PWs)   bands (ev):

   -15.7425 -15.7376 -15.7369 -15.7326 -15.7198 -15.7180 -15.7066 -15.7034
   -15.7024 -15.6960  -4.1469  -3.9117   1.9960   2.8566   3.4367   3.6730
     4.3794   5.0368   7.2083   8.1655   8.9279  10.0612  11.3695  11.5289
    12.0077  12.5906  12.8650  12.8717  14.0592  14.1507

          k = 0.5771 0.1498 0.0000 (  2834 PWs)   bands (ev):

   -15.7423 -15.7377 -15.7368 -15.7326 -15.7197 -15.7180 -15.7067 -15.7032
   -15.7023 -15.6961  -4.1367  -3.9129   2.0204   2.8730   3.4655   3.5692
     4.3723   4.9169   7.2040   8.2493   9.1180  10.1642  11.4022  11.5915
    11.9605  12.4443  12.7508  12.8864  13.9157  14.0787

          k = 0.5771 0.1665 0.0000 (  2842 PWs)   bands (ev):

   -15.7422 -15.7377 -15.7368 -15.7327 -15.7196 -15.7180 -15.7069 -15.7031
   -15.7022 -15.6962  -4.1256  -3.9147   2.0470   2.8901   3.4677   3.4975
     4.3623   4.7998   7.1662   8.3831   9.3115  10.2578  11.4385  11.6562
    11.8997  12.2857  12.6446  12.9264  13.7739  14.0114

          k = 0.5770 0.1831 0.0000 (  2842 PWs)   bands (ev):

   -15.7420 -15.7377 -15.7368 -15.7327 -15.7195 -15.7180 -15.7070 -15.7029
   -15.7021 -15.6964  -4.1136  -3.9171   2.0752   2.9073   3.3702   3.5329
     4.3487   4.6875   7.1092   8.5519   9.5056  10.3418  11.4771  11.7198
    11.8258  12.1258  12.5541  12.9725  13.6364  13.9561

          k = 0.5770 0.1998 0.0000 (  2846 PWs)   bands (ev):

   -15.7419 -15.7378 -15.7368 -15.7328 -15.7193 -15.7181 -15.7072 -15.7028
   -15.7020 -15.6965  -4.1009  -3.9202   2.1046   2.9240   3.2782   3.5715
     4.3311   4.5815   7.0444   8.7443   9.6971  10.4158  11.5130  11.7455
    11.7771  11.9701  12.4779  13.0186  13.5056  13.9195

          k = 0.5770 0.2164 0.0000 (  2846 PWs)   bands (ev):

   -15.7418 -15.7378 -15.7368 -15.7328 -15.7192 -15.7181 -15.7073 -15.7027
   -15.7019 -15.6966  -4.0875  -3.9242   2.1346   2.9395   3.1932   3.6133
     4.3088   4.4834   6.9791   8.9527   9.8823  10.4799  11.5220  11.6867
    11.7799  11.8652  12.4131  13.0592  13.3835  13.9039

          k = 0.5769 0.2331 0.0000 (  2850 PWs)   bands (ev):

   -15.7417 -15.7378 -15.7368 -15.7328 -15.7191 -15.7182 -15.7074 -15.7025
   -15.7018 -15.6967  -4.0736  -3.9292   2.1643   2.9527   3.1170   3.6583
     4.2814   4.3948   6.9176   9.1723  10.0568  10.5339  11.4616  11.6448
    11.6964  11.8935  12.3561  13.0910  13.2732  13.8912

          k = 0.5769 0.2497 0.0000 (  2848 PWs)   bands (ev):

   -15.7416 -15.7377 -15.7369 -15.7329 -15.7190 -15.7182 -15.7075 -15.7024
   -15.7018 -15.6969  -4.0593  -3.9353   2.1924   2.9628   3.0512   3.7064
     4.2485   4.3172   6.8629   9.3998  10.2147  10.5770  11.3636  11.4991
    11.7465  11.9280  12.3036  13.1141  13.1782  13.8262

          k = 0.5769 0.2664 0.0000 (  2848 PWs)   bands (ev):

   -15.7415 -15.7377 -15.7369 -15.7329 -15.7188 -15.7182 -15.7076 -15.7023
   -15.7017 -15.6970  -4.0448  -3.9425   2.2175   2.9686   2.9977   3.7577
     4.2096   4.2521   6.8166   9.6323  10.3487  10.6084  11.2601  11.3584
    11.8088  11.9548  12.2534  13.1029  13.1328  13.7121

          k = 0.5769 0.2830 0.0000 (  2854 PWs)   bands (ev):

   -15.7414 -15.7376 -15.7370 -15.7329 -15.7187 -15.7183 -15.7076 -15.7022
   -15.7017 -15.6970  -4.0301  -3.9512   2.2381   2.9583   2.9697   3.8120
     4.1647   4.2007   6.7800   9.8665  10.4492  10.6260  11.1640  11.2270
    11.8738  11.9742  12.2035  13.0557  13.1502  13.5847

          k = 0.5768 0.2997 0.0000 (  2856 PWs)   bands (ev):

   -15.7414 -15.7375 -15.7371 -15.7329 -15.7186 -15.7183 -15.7077 -15.7020
   -15.7017 -15.6971  -4.0154  -3.9612   2.2529   2.9351   2.9648   3.8693
     4.1138   4.1638   6.7536  10.0967  10.5046  10.6272  11.0857  11.1115
    11.9352  11.9890  12.1521  13.0434  13.1694  13.4575

          k = 0.5768 0.3163 0.0000 (  2844 PWs)   bands (ev):

   -15.7413 -15.7374 -15.7372 -15.7329 -15.7185 -15.7184 -15.7077 -15.7019
   -15.7018 -15.6971  -4.0008  -3.9728   2.2613   2.9285   2.9545   3.9295
     4.0572   4.1419   6.7378  10.3094  10.5062  10.6092  11.0240  11.0346
    11.9883  12.0031  12.0976  13.0719  13.1836  13.3426

          k = 0.5768 0.3330 0.0000 (  2844 PWs)   bands (ev):

   -15.7413 -15.7373 -15.7373 -15.7329 -15.7185 -15.7185 -15.7077 -15.7018
   -15.7018 -15.6972  -3.9869  -3.9857   2.2638   2.9379   2.9394   3.9913
     3.9965   4.1346   6.7324  10.4549  10.4601  10.5861  11.0000  11.0023
    12.0196  12.0214  12.0508  13.1389  13.1460  13.2901

          k = 0.5479 0.3163 0.0000 (  2848 PWs)   bands (ev):

   -15.7414 -15.7376 -15.7370 -15.7329 -15.7186 -15.7184 -15.7077 -15.7021
   -15.7016 -15.6971  -4.0185  -3.9587   2.2584   2.8963   3.0020   3.8537
     4.1303   4.1621   6.7530  10.2765  10.3449  10.5920  10.9394  11.2691
    11.8857  12.0858  12.1306  12.9132  13.3592  13.3615

          k = 0.5191 0.2997 0.0000 (  2848 PWs)   bands (ev):

   -15.7414 -15.7378 -15.7368 -15.7329 -15.7188 -15.7183 -15.7076 -15.7025
   -15.7015 -15.6970  -4.0572  -3.9345   2.2550   2.8513   3.1030   3.7047
     4.2292   4.2785   6.8104  10.0639  10.1317  10.4864  10.8381  11.6478
    11.7231  12.2355  12.2382  12.6814  13.4759  13.5317

          k = 0.4903 0.2830 0.0000 (  2850 PWs)   bands (ev):

   -15.7415 -15.7381 -15.7365 -15.7330 -15.7189 -15.7183 -15.7075 -15.7029
   -15.7013 -15.6969  -4.1027  -3.9142   2.2674   2.8147   3.2186   3.5597
     4.3316   4.4333   6.8996   9.8489   9.9162  10.3378  10.7007  11.5518
    11.8927  12.3689  12.4167  12.5928  13.5487  13.6091

          k = 0.4614 0.2664 0.0000 (  2848 PWs)   bands (ev):

   -15.7415 -15.7383 -15.7363 -15.7331 -15.7191 -15.7184 -15.7074 -15.7035
   -15.7012 -15.6968  -4.1546  -3.8986   2.3029   2.7955   3.2656   3.4985
     4.4571   4.5971   7.0156   9.6421   9.7134  10.1667  10.5441  11.3807
    12.0082  12.2332  12.5131  12.9807  13.4609  13.7575

          k = 0.4326 0.2497 0.0000 (  2842 PWs)   bands (ev):

   -15.7415 -15.7385 -15.7361 -15.7333 -15.7193 -15.7185 -15.7073 -15.7040
   -15.7010 -15.6967  -4.2121  -3.8883   2.3650   2.7995   3.1508   3.6136
     4.5994   4.7685   7.1536   9.4480   9.5292   9.9836  10.3809  11.2160
    11.9865  12.1210  12.6524  13.3481  13.3503  13.9242

          k = 0.4037 0.2331 0.0000 (  2842 PWs)   bands (ev):

   -15.7415 -15.7387 -15.7360 -15.7335 -15.7195 -15.7187 -15.7072 -15.7046
   -15.7009 -15.6966  -4.2742  -3.8836   2.4535   2.8305   2.9987   3.7810
     4.7535   4.9458   7.3089   9.2694   9.3676   9.7950  10.2189  11.0621
    11.8157  12.1276  12.7426  13.2770  13.6105  14.1049

          k = 0.3749 0.2164 0.0000 (  2832 PWs)   bands (ev):

   -15.7414 -15.7388 -15.7359 -15.7338 -15.7198 -15.7188 -15.7072 -15.7052
   -15.7007 -15.6966  -4.3395  -3.8845   2.5617   2.8535   2.8905   3.9632
     4.9155   5.1268   7.4761   9.1083   9.2323   9.6056  10.0631  10.9229
    11.6409  12.1113  12.7179  13.3048  13.7874  14.0224

          k = 0.3461 0.1998 0.0000 (  2818 PWs)   bands (ev):

   -15.7413 -15.7389 -15.7358 -15.7341 -15.7200 -15.7190 -15.7072 -15.7057
   -15.7005 -15.6967  -4.4066  -3.8907   2.6160   2.7950   2.9804   4.1520
     5.0815   5.3092   7.6490   8.9659   9.1259   9.4211   9.9166  10.8017
    11.4763  12.0617  12.5895  13.2900  13.7258  13.9385

          k = 0.3172 0.1831 0.0000 (  2826 PWs)   bands (ev):

   -15.7412 -15.7390 -15.7359 -15.7344 -15.7202 -15.7193 -15.7073 -15.7063
   -15.7003 -15.6968  -4.4742  -3.9015   2.5102   2.9313   3.1001   4.3429
     5.2478   5.4897   7.8191   8.8428   9.0407   9.2582   9.7820  10.7019
    11.3233  11.9831  12.3845  12.9793  13.8018  14.0271

          k = 0.2884 0.1665 0.0000 (  2832 PWs)   bands (ev):

   -15.7410 -15.7390 -15.7359 -15.7348 -15.7205 -15.7195 -15.7074 -15.7068
   -15.7001 -15.6969  -4.5408  -3.9161   2.3814   3.1254   3.2491   4.5316
     5.4105   5.6649   7.9757   8.7379   8.9272   9.1769   9.6619  10.6268
    11.1822  11.8807  12.0740  12.6774  13.6225  13.9891

          k = 0.2595 0.1498 0.0000 (  2822 PWs)   bands (ev):

   -15.7408 -15.7390 -15.7360 -15.7352 -15.7207 -15.7198 -15.7076 -15.7072
   -15.6999 -15.6970  -4.6051  -3.9336   2.2586   3.3481   3.4259   4.7140
     5.5656   5.8306   8.1077   8.6471   8.7601   9.2131   9.5606  10.5795
    11.0526  11.6753  11.7574  12.4755  13.2250  14.0001

          k = 0.2307 0.1332 0.0000 (  2822 PWs)   bands (ev):

   -15.7405 -15.7390 -15.7361 -15.7357 -15.7210 -15.7200 -15.7078 -15.7076
   -15.6996 -15.6972  -4.6658  -3.9528   2.1458   3.5944   3.6289   4.8856
     5.7090   5.9826   8.1994   8.5604   8.5868   9.3325   9.4849  10.5625
    10.9337  11.2606  11.6149  12.3297  12.8716  13.6031

          k = 0.2019 0.1165 0.0000 (  2830 PWs)   bands (ev):

   -15.7403 -15.7389 -15.7363 -15.7361 -15.7212 -15.7203 -15.7080 -15.7080
   -15.6994 -15.6974  -4.7218  -3.9728   2.0446   3.8558   3.8614   5.0423
     5.8366   6.1173   8.1791   8.4609   8.5008   9.4450   9.5097  10.5724
    10.8241  10.8816  11.4563  12.2123  12.5769  13.1766

          k = 0.1730 0.0999 0.0000 (  2820 PWs)   bands (ev):

   -15.7401 -15.7389 -15.7365 -15.7365 -15.7214 -15.7205 -15.7083 -15.7083
   -15.6991 -15.6976  -4.7722  -3.9925   1.9558   4.1037   4.1467   5.1804
     5.9454   6.2320   7.9956   8.3280   8.5681   9.4498   9.7227  10.4948
    10.6829  10.7214  11.2934  12.1136  12.3437  12.7500

          k = 0.1442 0.0832 0.0000 (  2814 PWs)   bands (ev):

   -15.7398 -15.7389 -15.7368 -15.7367 -15.7216 -15.7208 -15.7085 -15.7085
   -15.6989 -15.6978  -4.8161  -4.0108   1.8799   4.3687   4.4474   5.2981
     6.0333   6.3247   7.7470   8.1481   8.7001   9.4962   9.9502  10.2644
    10.6218  10.7544  11.1491  12.0290  12.1551  12.3480

          k = 0.1154 0.0666 0.0000 (  2812 PWs)   bands (ev):

   -15.7396 -15.7389 -15.7371 -15.7369 -15.7218 -15.7210 -15.7087 -15.7087
   -15.6987 -15.6979  -4.8530  -4.0270   1.8174   4.6450   4.7592   5.3960
     6.0999   6.3939   7.4670   7.9245   8.8671   9.5556  10.1234  10.1657
    10.5225  10.8820  11.0525  11.9028  11.9551  12.0798

          k = 0.0865 0.0499 0.0000 (  2830 PWs)   bands (ev):

   -15.7394 -15.7389 -15.7373 -15.7371 -15.7220 -15.7211 -15.7089 -15.7088
   -15.6985 -15.6981  -4.8822  -4.0403   1.7685   4.9233   5.0722   5.4815
     6.1458   6.4371   7.1638   7.6788   9.0592   9.5764  10.1224  10.3319
    10.4256  11.0220  11.0451  11.5880  11.8858  11.9583

          k = 0.0577 0.0333 0.0000 (  2823 PWs)   bands (ev):

   -15.7392 -15.7390 -15.7374 -15.7373 -15.7221 -15.7212 -15.7090 -15.7089
   -15.6984 -15.6982  -4.9034  -4.0503   1.7334   5.1859   5.3416   5.5975
     6.1719   6.4509   6.8429   7.4481   9.2611   9.5536  10.2367  10.3373
    10.4189  10.9944  11.2340  11.4131  11.8032  11.8628

          k = 0.0288 0.0166 0.0000 (  2823 PWs)   bands (ev):

   -15.7391 -15.7390 -15.7374 -15.7374 -15.7222 -15.7213 -15.7090 -15.7090
   -15.6983 -15.6982  -4.9162  -4.0564   1.7123   5.3955   5.4588   5.8497
     6.1791   6.4384   6.5105   7.2805   9.4381   9.5270  10.2640  10.3772
    10.4433  10.8770  11.4314  11.4752  11.6619  11.7643

          k = 0.0000 0.0000 0.0000 (  2827 PWs)   bands (ev):

   -15.7390 -15.7390 -15.7375 -15.7375 -15.7222 -15.7213 -15.7090 -15.7090
   -15.6982 -15.6982  -4.9204  -4.0584   1.7052   5.4823   5.4823   6.1719
     6.1768   6.1768   6.4262   7.2193   9.5167   9.5167  10.2293  10.4443
    10.4443  10.8155  11.5706  11.5785  11.6772  11.6772

          k = 0.0000 0.0000 0.0158 (  2821 PWs)   bands (ev):

   -15.7390 -15.7390 -15.7374 -15.7374 -15.7222 -15.7213 -15.7090 -15.7090
   -15.6982 -15.6982  -4.9195  -4.0600   1.7096   5.4833   5.4833   6.1071
     6.1757   6.1757   6.4839   7.2240   9.5121   9.5121  10.2294  10.4460
    10.4460  10.7997  11.5402  11.5403  11.5845  11.7273

          k = 0.0000 0.0000 0.0317 (  2821 PWs)   bands (ev):

   -15.7391 -15.7391 -15.7374 -15.7374 -15.7222 -15.7213 -15.7090 -15.7090
   -15.6982 -15.6982  -4.9167  -4.0647   1.7226   5.4863   5.4863   5.9808
     6.1724   6.1724   6.5890   7.2383   9.4987   9.4987  10.2289  10.4503
    10.4503  10.7582  11.4877  11.4877  11.6197  11.8160

          k = 0.0000 0.0000 0.0475 (  2821 PWs)   bands (ev):

   -15.7392 -15.7392 -15.7373 -15.7373 -15.7223 -15.7213 -15.7090 -15.7090
   -15.6983 -15.6983  -4.9120  -4.0723   1.7441   5.4912   5.4912   5.8373
     6.1670   6.1670   6.6958   7.2630   9.4777   9.4777  10.2259  10.4541
    10.4541  10.7033  11.4485  11.4485  11.6616  11.9172

          k = 0.0000 0.0000 0.0634 (  2833 PWs)   bands (ev):

   -15.7392 -15.7392 -15.7372 -15.7372 -15.7223 -15.7212 -15.7090 -15.7090
   -15.6983 -15.6983  -4.9055  -4.0830   1.7742   5.4981   5.4981   5.6867
     6.1595   6.1595   6.7932   7.2989   9.4511   9.4511  10.2166  10.4537
    10.4537  10.6483  11.4286  11.4287  11.6963  12.0267

          k = 0.0000 0.0000 0.0792 (  2809 PWs)   bands (ev):

   -15.7393 -15.7393 -15.7371 -15.7371 -15.7224 -15.7212 -15.7090 -15.7090
   -15.6983 -15.6983  -4.8972  -4.0963   1.8125   5.5069   5.5069   5.5320
     6.1500   6.1500   6.8775   7.3461   9.4207   9.4207  10.1963  10.4459
    10.4459  10.6044  11.4311  11.4311  11.7155  12.1429

          k = 0.0000 0.0000 0.0951 (  2809 PWs)   bands (ev):

   -15.7394 -15.7394 -15.7370 -15.7370 -15.7224 -15.7211 -15.7091 -15.7091
   -15.6983 -15.6983  -4.8871  -4.1123   1.8590   5.3749   5.5176   5.5176
     6.1383   6.1383   6.9481   7.4030   9.3882   9.3882  10.1619  10.4290
    10.4290  10.5784  11.4565  11.4565  11.7189  12.2651

          k = 0.0000 0.0000 0.1109 (  2809 PWs)   bands (ev):

   -15.7395 -15.7395 -15.7369 -15.7369 -15.7225 -15.7211 -15.7091 -15.7091
   -15.6983 -15.6983  -4.8753  -4.1307   1.9134   5.2164   5.5300   5.5300
     6.1247   6.1247   7.0070   7.4657   9.3550   9.3550  10.1151  10.4031
    10.4031  10.5703  11.5035  11.5035  11.7119  12.3926

          k = 0.0000 0.0000 0.1268 (  2809 PWs)   bands (ev):

   -15.7397 -15.7397 -15.7368 -15.7368 -15.7225 -15.7210 -15.7091 -15.7091
   -15.6983 -15.6983  -4.8619  -4.1511   1.9754   5.0573   5.5443   5.5443
     6.1092   6.1092   7.0574   7.5296   9.3223   9.3223  10.0614  10.3702
    10.3702  10.5754  11.5695  11.5695  11.7017  12.5249

          k = 0.0000 0.0000 0.1426 (  2803 PWs)   bands (ev):

   -15.7398 -15.7398 -15.7367 -15.7367 -15.7226 -15.7210 -15.7091 -15.7091
   -15.6983 -15.6983  -4.8470  -4.1734   2.0448   4.8981   5.5603   5.5603
     6.0919   6.0919   7.1024   7.5904   9.2910   9.2910  10.0065  10.3325
    10.3325  10.5873  11.6512  11.6512  11.6953  12.6617

          k = 0.0000 0.0000 0.1585 (  2809 PWs)   bands (ev):

   -15.7398 -15.7398 -15.7366 -15.7366 -15.7226 -15.7209 -15.7091 -15.7091
   -15.6983 -15.6983  -4.8308  -4.1972   2.1212   4.7394   5.5778   5.5778
     6.0729   6.0729   7.1442   7.6446   9.2617   9.2617   9.9546  10.2923
    10.2923  10.6007  11.6985  11.7456  11.7456  12.8027

          k = 0.0000 0.0000 0.1743 (  2797 PWs)   bands (ev):

   -15.7399 -15.7399 -15.7365 -15.7365 -15.7227 -15.7209 -15.7091 -15.7091
   -15.6983 -15.6983  -4.8133  -4.2222   2.2043   4.5816   5.5970   5.5970
     6.0523   6.0523   7.1843   7.6900   9.2348   9.2348   9.9083  10.2517
    10.2517  10.6115  11.7158  11.8499  11.8499  12.9476

          k = 0.0000 0.0000 0.1902 (  2797 PWs)   bands (ev):

   -15.7400 -15.7400 -15.7364 -15.7364 -15.7227 -15.7208 -15.7091 -15.7091
   -15.6983 -15.6983  -4.7947  -4.2480   2.2938   4.4253   5.6175   5.6175
     6.0302   6.0302   7.2235   7.7253   9.2106   9.2106   9.8692  10.2121
    10.2121  10.6170  11.7503  11.9617  11.9617  13.0962

          k = 0.0000 0.0000 0.2060 (  2797 PWs)   bands (ev):

   -15.7401 -15.7401 -15.7363 -15.7363 -15.7227 -15.7208 -15.7091 -15.7091
   -15.6983 -15.6983  -4.7755  -4.2741   2.3892   4.2709   5.6394   5.6394
     6.0068   6.0068   7.2622   7.7501   9.1894   9.1894   9.8379  10.1749
    10.1749  10.6163  11.8031  12.0786  12.0786  13.2479

          k = 0.0000 0.0000 0.2219 (  2791 PWs)   bands (ev):

   -15.7402 -15.7402 -15.7362 -15.7362 -15.7228 -15.7208 -15.7091 -15.7091
   -15.6984 -15.6984  -4.7558  -4.3000   2.4900   4.1189   5.6625   5.6625
     5.9824   5.9824   7.3001   7.7647   9.1711   9.1711   9.8143  10.1409
    10.1409  10.6098  11.8737  12.1983  12.1983  13.3566

          k = 0.0000 0.0000 0.2377 (  2791 PWs)   bands (ev):

   -15.7402 -15.7402 -15.7361 -15.7361 -15.7228 -15.7207 -15.7091 -15.7091
   -15.6984 -15.6984  -4.7363  -4.3251   2.5957   3.9699   5.6866   5.6866
     5.9569   5.9569   7.3370   7.7701   9.1557   9.1557   9.7975  10.1110
    10.1111  10.5991  11.9604  12.3180  12.3180  13.2642

          k = 0.0000 0.0000 0.2536 (  2815 PWs)   bands (ev):

   -15.7403 -15.7403 -15.7361 -15.7361 -15.7228 -15.7207 -15.7091 -15.7091
   -15.6984 -15.6984  -4.7175  -4.3485   2.7052   3.8249   5.7116   5.7116
     5.9308   5.9308   7.3717   7.7682   9.1433   9.1433   9.7864  10.0858
    10.0858  10.5863  12.0602  12.4337  12.4337  13.1548

          k = 0.0000 0.0000 0.2694 (  2827 PWs)   bands (ev):

   -15.7403 -15.7403 -15.7360 -15.7360 -15.7229 -15.7207 -15.7091 -15.7091
   -15.6984 -15.6984  -4.7006  -4.3692   2.8171   3.6856   5.7373   5.7373
     5.9042   5.9042   7.4029   7.7612   9.1338   9.1338   9.7798  10.0657
    10.0657  10.5736  12.1696  12.5400  12.5401  13.0355

          k = 0.0000 0.0000 0.2853 (  2827 PWs)   bands (ev):

   -15.7403 -15.7403 -15.7360 -15.7360 -15.7229 -15.7207 -15.7091 -15.7091
   -15.6984 -15.6984  -4.6868  -4.3858   2.9275   3.5555   5.7634   5.7634
     5.8774   5.8774   7.4286   7.7522   9.1271   9.1271   9.7763  10.0511
    10.0511  10.5630  12.2826  12.6290  12.6290  12.9139

          k = 0.0000 0.0000 0.3011 (  2826 PWs)   bands (ev):

   -15.7403 -15.7403 -15.7360 -15.7360 -15.7229 -15.7207 -15.7091 -15.7091
   -15.6984 -15.6984  -4.6776  -4.3967   3.0251   3.4461   5.7888   5.7888
     5.8516   5.8516   7.4458   7.7447   9.1231   9.1231   9.7748  10.0423
    10.0423  10.5560  12.3859  12.6897  12.6897  12.8050

          k = 0.0000 0.0000 0.3170 (  2844 PWs)   bands (ev):

   -15.7403 -15.7403 -15.7360 -15.7360 -15.7229 -15.7207 -15.7091 -15.7091
   -15.6984 -15.6984  -4.6743  -4.4006   3.0718   3.3954   5.8051   5.8051
     5.8352   5.8352   7.4519   7.7417   9.1217   9.1217   9.7743  10.0393
    10.0393  10.5535  12.4369  12.7116  12.7116  12.7521

     Writing all to output data dir ./work/pwscf.save/

     init_run     :      0.75s CPU      0.78s WALL (       1 calls)
     electrons    :      5.71s CPU      6.21s WALL (       1 calls)

     Called by init_run:
     wfcinit      :      0.00s CPU      0.00s WALL (       1 calls)
     wfcinit:atom :      0.01s CPU      0.01s WALL (      81 calls)
     wfcinit:wfcr :      0.29s CPU      0.32s WALL (      81 calls)
     potinit      :      0.13s CPU      0.15s WALL (       1 calls)
     hinit0       :      0.45s CPU      0.45s WALL (       1 calls)

     Called by electrons:
     c_bands      :      5.71s CPU      6.21s WALL (       1 calls)
     v_of_rho     :      0.02s CPU      0.02s WALL (       1 calls)
     v_h          :      0.00s CPU      0.00s WALL (       1 calls)
     v_xc         :      0.02s CPU      0.02s WALL (       1 calls)
     newd         :      0.05s CPU      0.06s WALL (       1 calls)

     Called by c_bands:
     init_us_2    :      0.01s CPU      0.01s WALL (      81 calls)
     init_us_2:cp :      0.01s CPU      0.01s WALL (      81 calls)
     cegterg      :      5.29s CPU      5.42s WALL (     140 calls)

     Called by sum_band:

     Called by *egterg:
     cdiaghg      :      1.26s CPU      1.28s WALL (    1966 calls)
     cegterg:over :      0.48s CPU      0.49s WALL (    1885 calls)
     cegterg:upda :      0.14s CPU      0.14s WALL (    1885 calls)
     cegterg:last :      0.30s CPU      0.31s WALL (    1013 calls)
     h_psi        :      2.82s CPU      2.92s WALL (    2106 calls)
     s_psi        :      0.14s CPU      0.15s WALL (    2106 calls)
     g_psi        :      0.03s CPU      0.03s WALL (    1885 calls)

     Called by h_psi:
     h_psi:calbec :      0.30s CPU      0.31s WALL (    2106 calls)
     vloc_psi     :      2.36s CPU      2.44s WALL (    2106 calls)
     add_vuspsi   :      0.16s CPU      0.16s WALL (    2106 calls)

     General routines
     calbec       :      0.29s CPU      0.30s WALL (    2106 calls)
     fft          :      0.31s CPU      0.31s WALL (      13 calls)
     ffts         :      0.11s CPU      0.11s WALL (       1 calls)
     fftw         :      2.12s CPU      2.20s WALL (   61670 calls)
     interpolate  :      0.11s CPU      0.11s WALL (       1 calls)

     Parallel routines

     PWSCF        :      6.79s CPU      8.59s WALL


   This run was terminated on:  16:52: 3  25Sep2023            

=------------------------------------------------------------------------------=
   JOB DONE.
=------------------------------------------------------------------------------=
