
     Program BANDS v.7.1 starts on 22Sep2023 at 15:43:24 

     This program is part of the open-source Quantum ESPRESSO suite
     for quantum simulation of materials; please cite
         "P. Giannozzi et al., J. Phys.:Condens. Matter 21 395502 (2009);
         "P. Giannozzi et al., J. Phys.:Condens. Matter 29 465901 (2017);
         "P. Giannozzi et al., J. Chem. Phys. 152 154105 (2020);
          URL http://www.quantum-espresso.org", 
     in publications or presentations arising from this work. More details at
     http://www.quantum-espresso.org/quote

     Parallel version (MPI & OpenMP), running on      10 processor cores
     Number of MPI processes:                10
     Threads/MPI process:                     1

     MPI processes distributed on     1 nodes
     R & G space division:  proc/nbgrp/npool/nimage =      10
     11673 MiB available memory on the printing compute node when the environment starts


     Reading xml data from directory:

     ./work/pwscf.save/
     file O.pbe-n-kjpaw_psl.1.0.0.UPF: wavefunction(s)  2S 2P renormalized
     file La.pbe-spfn-kjpaw_psl.1.0.0.UPF: wavefunction(s)  5S 5D 4F renormalized
     file V.pbe-spn-kjpaw_psl.1.0.0.UPF: wavefunction(s)  3P 3D renormalized

     IMPORTANT: XC functional enforced from input :
     Exchange-correlation= PBE
                           (   1   4   3   4   0   0   0)
     Any further DFT definition will be discarded
     Please, verify this is what you really want


     Parallelization info
     --------------------
     sticks:   dense  smooth     PW     G-vecs:    dense   smooth      PW
     Min         284     132     38                11380     3636     572
     Max         286     133     39                11381     3639     575
     Sum        2845    1321    385               113801    36377    5743

     Using Slab Decomposition


     Check: negative core charge=   -0.000001

     negative rho (up, down):  1.037E-05 0.000E+00
     Reading collected, re-writing distributed wavefunctions
     high-symmetry point:  0.5000 0.5000 0.5000   x coordinate   0.0000
     high-symmetry point:  0.0000 0.0000 0.0000   x coordinate   0.8660
     high-symmetry point:  0.0000 0.5000 0.0000   x coordinate   1.3660
     high-symmetry point:  0.5000 0.5000 0.0000   x coordinate   1.8660
     high-symmetry point:  0.0000 0.0000 0.0000   x coordinate   2.5731

     Plottable bands (eV) written to file bands.out.gnu
     Bands written to file bands.out

 **************************************************************************

                    xk=(   0.50000,   0.50000,   0.50000  )

     point group O_h (m-3m) 
     there are 10 classes
     the character table:

       E     8C3   3C2   6C4   6C2'  i     8S6   3s_h  6S4   6s_d 
A_1g   1.00  1.00  1.00  1.00  1.00  1.00  1.00  1.00  1.00  1.00
A_2g   1.00  1.00  1.00 -1.00 -1.00  1.00  1.00  1.00 -1.00 -1.00
E_g    2.00 -1.00  2.00  0.00  0.00  2.00 -1.00  2.00  0.00  0.00
T_1g   3.00  0.00 -1.00  1.00 -1.00  3.00  0.00 -1.00  1.00 -1.00
T_2g   3.00  0.00 -1.00 -1.00  1.00  3.00  0.00 -1.00 -1.00  1.00
A_1u   1.00  1.00  1.00  1.00  1.00 -1.00 -1.00 -1.00 -1.00 -1.00
A_2u   1.00  1.00  1.00 -1.00 -1.00 -1.00 -1.00 -1.00  1.00  1.00
E_u    2.00 -1.00  2.00  0.00  0.00 -2.00  1.00 -2.00  0.00  0.00
T_1u   3.00  0.00 -1.00  1.00 -1.00 -3.00  0.00  1.00 -1.00  1.00
T_2u   3.00  0.00 -1.00 -1.00  1.00 -3.00  0.00  1.00  1.00 -1.00

     the symmetry operations in each class and the name of the first element:

     E        1
                                                                 
     8C3     17   19   20   18   24   21   22   23
                                                                 
     3C2      2    4    3
                                                                 
     6C4      7    8   15   16   12   11
                                                                 
     6C2'     5    6   14   13   10    9
                                                                 
     i       25
                                                                 
     8S6     41   43   44   42   48   45   46   47
                                                                 
     3s_h    26   28   27
                                                                 
     6S4     31   32   39   40   36   35
                                                                 
     6s_d    29   30   38   37   34   33
                                                                 

     Band symmetry, O_h (m-3m)  point group:

     e(  1 -  1) =    -50.67975  eV     1   --> A_1g G_1   G_1+
     e(  2 -  4) =    -24.58423  eV     3   --> T_1u G_15  G_4-
     e(  5 -  5) =    -19.05860  eV     1   --> A_2u G_2'  G_2-
     e(  6 -  8) =     -4.67087  eV     3   --> T_1u G_15  G_4-
     e(  9 - 11) =     -3.17433  eV     3   --> T_2g G_25' G_5+
     e( 12 - 12) =      6.76104  eV     1   --> A_1g G_1   G_1+
     e( 13 - 14) =      7.99256  eV     2   --> E_g  G_12  G_3+
     e( 15 - 17) =      8.40281  eV     3   --> T_2g G_25' G_5+
     e( 18 - 20) =     11.29212  eV     3   --> T_1g G_15' G_4+
     e( 21 - 23) =     15.59172  eV     3   --> T_2g G_25' G_5+
     e( 24 - 24) =     15.96764  eV     1   -->   ?
     e( 25 - 25) =     16.15195  eV     1   -->   ?

 **************************************************************************

 **************************************************************************

                    xk=(   0.47500,   0.47500,   0.47500  )

     point group C_3v (3m)  
     there are  3 classes
     the character table:

       E     2C3   3s_v 
A_1    1.00  1.00  1.00
A_2    1.00  1.00 -1.00
E      2.00 -1.00  0.00

     the symmetry operations in each class and the name of the first element:

     E        1
                                                                 
     2C3      2    3
                                                                 
     3s_v     4    5    6
                                                                 

     Band symmetry, C_3v (3m)   point group:

     e(  1 -  1) =    -50.67976  eV     1   --> A_1  L_1       
     e(  2 -  4) =    -24.58408  eV     3   --> A_1  L_1       
     e(  2 -  4) =    -24.58408  eV     3   --> E    L_3       
     e(  5 -  5) =    -19.05932  eV     1   --> A_1  L_1       
     e(  6 -  6) =     -4.69986  eV     1   --> A_1  L_1       
     e(  7 -  8) =     -4.67626  eV     2   --> E    L_3       
     e(  9 - 10) =     -3.16439  eV     2   --> E    L_3       
     e( 11 - 11) =     -3.14268  eV     1   --> A_1  L_1       
     e( 12 - 12) =      6.77766  eV     1   --> A_1  L_1       
     e( 13 - 14) =      7.99985  eV     2   --> E    L_3       
     e( 15 - 15) =      8.38221  eV     1   --> A_1  L_1       
     e( 16 - 17) =      8.40321  eV     2   --> E    L_3       
     e( 18 - 19) =     11.27066  eV     2   --> E    L_3       
     e( 20 - 20) =     11.28377  eV     1   --> A_2  L_2       
     e( 21 - 22) =     15.58625  eV     2   --> E    L_3       
     e( 23 - 23) =     15.59246  eV     1   --> A_1  L_1       
     e( 24 - 24) =     15.96233  eV     1   -->   ?
     e( 25 - 25) =     16.13286  eV     1   -->   ?

 **************************************************************************

 **************************************************************************

                    xk=(   0.45000,   0.45000,   0.45000  )

     Band symmetry, C_3v (3m)   point group:

     e(  1 -  1) =    -50.67977  eV     1   --> A_1  L_1       
     e(  2 -  4) =    -24.58357  eV     3   --> A_1  L_1       
     e(  2 -  4) =    -24.58357  eV     3   --> E    L_3       
     e(  5 -  5) =    -19.06146  eV     1   --> A_1  L_1       
     e(  6 -  6) =     -4.77894  eV     1   --> A_1  L_1       
     e(  7 -  8) =     -4.69159  eV     2   --> E    L_3       
     e(  9 - 10) =     -3.13564  eV     2   --> E    L_3       
     e( 11 - 11) =     -3.05605  eV     1   --> A_1  L_1       
     e( 12 - 12) =      6.82650  eV     1   --> A_1  L_1       
     e( 13 - 14) =      8.02149  eV     2   --> E    L_3       
     e( 15 - 15) =      8.32459  eV     1   --> A_1  L_1       
     e( 16 - 17) =      8.40471  eV     2   --> E    L_3       
     e( 18 - 19) =     11.20939  eV     2   --> E    L_3       
     e( 20 - 20) =     11.25898  eV     1   --> A_2  L_2       
     e( 21 - 21) =     15.56973  eV     1   -->   ?
     e( 22 - 22) =     15.56984  eV     1   -->   ?
     e( 23 - 23) =     15.59423  eV     1   --> A_1  L_1       
     e( 24 - 24) =     15.94457  eV     1   -->   ?
     e( 25 - 25) =     16.09118  eV     1   -->   ?

 **************************************************************************

 **************************************************************************

                    xk=(   0.42500,   0.42500,   0.42500  )

     Band symmetry, C_3v (3m)   point group:

     e(  1 -  1) =    -50.67982  eV     1   --> A_1  L_1       
     e(  2 -  4) =    -24.58281  eV     3   --> A_1  L_1       
     e(  2 -  4) =    -24.58281  eV     3   --> E    L_3       
     e(  5 -  5) =    -19.06498  eV     1   --> A_1  L_1       
     e(  6 -  6) =     -4.89107  eV     1   --> A_1  L_1       
     e(  7 -  8) =     -4.71465  eV     2   --> E    L_3       
     e(  9 - 10) =     -3.09101  eV     2   --> E    L_3       
     e( 11 - 11) =     -2.93282  eV     1   --> A_1  L_1       
     e( 12 - 12) =      6.90393  eV     1   --> A_1  L_1       
     e( 13 - 14) =      8.05657  eV     2   --> E    L_3       
     e( 15 - 15) =      8.24189  eV     1   --> A_1  L_1       
     e( 16 - 17) =      8.40814  eV     2   --> E    L_3       
     e( 18 - 19) =     11.11671  eV     2   --> E    L_3       
     e( 20 - 20) =     11.21859  eV     1   --> A_2  L_2       
     e( 21 - 21) =     15.54011  eV     1   -->   ?
     e( 22 - 22) =     15.54033  eV     1   -->   ?
     e( 23 - 23) =     15.59326  eV     1   --> A_1  L_1       
     e( 24 - 24) =     15.90858  eV     1   -->   ?
     e( 25 - 25) =     16.04877  eV     1   -->   ?

 **************************************************************************

 **************************************************************************

                    xk=(   0.40000,   0.40000,   0.40000  )

     Band symmetry, C_3v (3m)   point group:

     e(  1 -  1) =    -50.67989  eV     1   --> A_1  L_1       
     e(  2 -  2) =    -24.58181  eV     1   --> A_1  L_1       
     e(  3 -  4) =    -24.58170  eV     2   --> E    L_3       
     e(  5 -  5) =    -19.06981  eV     1   --> A_1  L_1       
     e(  6 -  6) =     -5.01988  eV     1   --> A_1  L_1       
     e(  7 -  8) =     -4.74246  eV     2   --> E    L_3       
     e(  9 - 10) =     -3.03465  eV     2   --> E    L_3       
     e( 11 - 11) =     -2.79156  eV     1   --> A_1  L_1       
     e( 12 - 12) =      7.00271  eV     1   --> A_1  L_1       
     e( 13 - 14) =      8.10372  eV     2   --> E    L_3       
     e( 15 - 15) =      8.15337  eV     1   --> A_1  L_1       
     e( 16 - 17) =      8.41486  eV     2   --> E    L_3       
     e( 18 - 19) =     11.00434  eV     2   --> E    L_3       
     e( 20 - 20) =     11.16396  eV     1   --> A_2  L_2       
     e( 21 - 21) =     15.49494  eV     1   -->   ?
     e( 22 - 22) =     15.49522  eV     1   -->   ?
     e( 23 - 23) =     15.58241  eV     1   --> A_1  L_1       
     e( 24 - 24) =     15.85715  eV     1   -->   ?
     e( 25 - 25) =     16.01327  eV     1   -->   ?

 **************************************************************************

 **************************************************************************

                    xk=(   0.37500,   0.37500,   0.37500  )

     Band symmetry, C_3v (3m)   point group:

     e(  1 -  1) =    -50.67996  eV     1   --> A_1  L_1       
     e(  2 -  2) =    -24.58050  eV     1   --> A_1  L_1       
     e(  3 -  4) =    -24.58032  eV     2   --> E    L_3       
     e(  5 -  5) =    -19.07582  eV     1   --> A_1  L_1       
     e(  6 -  6) =     -5.15333  eV     1   --> A_1  L_1       
     e(  7 -  8) =     -4.77192  eV     2   --> E    L_3       
     e(  9 - 10) =     -2.97119  eV     2   --> E    L_3       
     e( 11 - 11) =     -2.64722  eV     1   --> A_1  L_1       
     e( 12 - 12) =      7.10961  eV     1   --> A_1  L_1       
     e( 13 - 13) =      8.08561  eV     1   --> A_1  L_1       
     e( 14 - 15) =      8.16107  eV     2   --> E    L_3       
     e( 16 - 17) =      8.42693  eV     2   --> E    L_3       
     e( 18 - 19) =     10.88499  eV     2   --> E    L_3       
     e( 20 - 20) =     11.09698  eV     1   --> A_2  L_2       
     e( 21 - 21) =     15.43159  eV     1   -->   ?
     e( 22 - 22) =     15.43173  eV     1   -->   ?
     e( 23 - 23) =     15.54634  eV     1   --> A_1  L_1       
     e( 24 - 24) =     15.81077  eV     1   -->   ?
     e( 25 - 25) =     15.98899  eV     1   -->   ?

 **************************************************************************

 **************************************************************************

                    xk=(   0.35000,   0.35000,   0.35000  )

     Band symmetry, C_3v (3m)   point group:

     e(  1 -  1) =    -50.68006  eV     1   --> A_1  L_1       
     e(  2 -  2) =    -24.57905  eV     1   --> A_1  L_1       
     e(  3 -  4) =    -24.57875  eV     2   --> E    L_3       
     e(  5 -  5) =    -19.08294  eV     1   --> A_1  L_1       
     e(  6 -  6) =     -5.28327  eV     1   --> A_1  L_1       
     e(  7 -  8) =     -4.80025  eV     2   --> E    L_3       
     e(  9 - 10) =     -2.90525  eV     2   --> E    L_3       
     e( 11 - 11) =     -2.51146  eV     1   --> A_1  L_1       
     e( 12 - 12) =      7.20378  eV     1   --> A_1  L_1       
     e( 13 - 13) =      8.07196  eV     1   --> A_1  L_1       
     e( 14 - 15) =      8.22578  eV     2   --> E    L_3       
     e( 16 - 17) =      8.44688  eV     2   --> E    L_3       
     e( 18 - 19) =     10.77047  eV     2   --> E    L_3       
     e( 20 - 20) =     11.01971  eV     1   --> A_2  L_2       
     e( 21 - 21) =     15.34722  eV     1   -->   ?
     e( 22 - 22) =     15.34735  eV     1   -->   ?
     e( 23 - 23) =     15.47080  eV     1   --> A_1  L_1       
     e( 24 - 24) =     15.78981  eV     1   -->   ?
     e( 25 - 25) =     15.95572  eV     1   -->   ?

 **************************************************************************

 **************************************************************************

                    xk=(   0.32500,   0.32500,   0.32500  )

     Band symmetry, C_3v (3m)   point group:

     e(  1 -  1) =    -50.68016  eV     1   --> A_1  L_1       
     e(  2 -  2) =    -24.57738  eV     1   --> A_1  L_1       
     e(  3 -  4) =    -24.57698  eV     2   --> E    L_3       
     e(  5 -  5) =    -19.09100  eV     1   --> A_1  L_1       
     e(  6 -  6) =     -5.40416  eV     1   --> A_1  L_1       
     e(  7 -  8) =     -4.82522  eV     2   --> E    L_3       
     e(  9 - 10) =     -2.84111  eV     2   --> E    L_3       
     e( 11 - 11) =     -2.39345  eV     1   --> A_1  L_1       
     e( 12 - 12) =      7.26697  eV     1   --> A_1  L_1       
     e( 13 - 13) =      8.14154  eV     1   --> A_1  L_1       
     e( 14 - 15) =      8.29469  eV     2   --> E    L_3       
     e( 16 - 17) =      8.47783  eV     2   --> E    L_3       
     e( 18 - 19) =     10.67127  eV     2   --> E    L_3       
     e( 20 - 20) =     10.93453  eV     1   --> A_2  L_2       
     e( 21 - 21) =     15.24328  eV     1   -->   ?
     e( 22 - 22) =     15.24391  eV     1   -->   ?
     e( 23 - 23) =     15.36031  eV     1   --> A_1  L_1       
     e( 24 - 24) =     15.79215  eV     1   -->   ?
     e( 25 - 25) =     15.90925  eV     1   -->   ?

 **************************************************************************

 **************************************************************************

                    xk=(   0.30000,   0.30000,   0.30000  )

     Band symmetry, C_3v (3m)   point group:

     e(  1 -  1) =    -50.68028  eV     1   --> A_1  L_1       
     e(  2 -  2) =    -24.57557  eV     1   --> A_1  L_1       
     e(  3 -  4) =    -24.57507  eV     2   --> E    L_3       
     e(  5 -  5) =    -19.09986  eV     1   --> A_1  L_1       
     e(  6 -  6) =     -5.51228  eV     1   --> A_1  L_1       
     e(  7 -  8) =     -4.84515  eV     2   --> E    L_3       
     e(  9 - 10) =     -2.78248  eV     2   --> E    L_3       
     e( 11 - 11) =     -2.30034  eV     1   --> A_1  L_1       
     e( 12 - 12) =      7.30497  eV     1   --> A_1  L_1       
     e( 13 - 13) =      8.29635  eV     1   --> A_1  L_1       
     e( 14 - 15) =      8.36403  eV     2   --> E    L_3       
     e( 16 - 17) =      8.52317  eV     2   --> E    L_3       
     e( 18 - 19) =     10.59556  eV     2   --> E    L_3       
     e( 20 - 20) =     10.84383  eV     1   --> A_2  L_2       
     e( 21 - 21) =     15.11980  eV     1   -->   ?
     e( 22 - 22) =     15.12006  eV     1   -->   ?
     e( 23 - 23) =     15.22624  eV     1   --> A_1  L_1       
     e( 24 - 24) =     15.80712  eV     1   -->   ?
     e( 25 - 25) =     15.86587  eV     1   -->   ?

 **************************************************************************

 **************************************************************************

                    xk=(   0.27500,   0.27500,   0.27500  )

     Band symmetry, C_3v (3m)   point group:

     e(  1 -  1) =    -50.68039  eV     1   --> A_1  L_1       
     e(  2 -  2) =    -24.57363  eV     1   --> A_1  L_1       
     e(  3 -  4) =    -24.57306  eV     2   --> E    L_3       
     e(  5 -  5) =    -19.10936  eV     1   --> A_1  L_1       
     e(  6 -  6) =     -5.60510  eV     1   --> A_1  L_1       
     e(  7 -  8) =     -4.85893  eV     2   --> E    L_3       
     e(  9 - 10) =     -2.73241  eV     2   --> E    L_3       
     e( 11 - 11) =     -2.23714  eV     1   --> A_1  L_1       
     e( 12 - 12) =      7.34342  eV     1   --> A_1  L_1       
     e( 13 - 14) =      8.43020  eV     2   --> E    L_3       
     e( 15 - 15) =      8.51508  eV     1   --> A_1  L_1       
     e( 16 - 17) =      8.58628  eV     2   --> E    L_3       
     e( 18 - 19) =     10.54943  eV     2   --> E    L_3       
     e( 20 - 20) =     10.75010  eV     1   --> A_2  L_2       
     e( 21 - 21) =     14.98381  eV     1   -->   ?
     e( 22 - 22) =     14.98392  eV     1   -->   ?
     e( 23 - 23) =     15.07637  eV     1   --> A_1  L_1       
     e( 24 - 24) =     15.82784  eV     1   -->   ?
     e( 25 - 25) =     15.82848  eV     1   -->   ?

 **************************************************************************

 **************************************************************************

                    xk=(   0.25000,   0.25000,   0.25000  )

     Band symmetry, C_3v (3m)   point group:

     e(  1 -  1) =    -50.68052  eV     1   --> A_1  L_1       
     e(  2 -  2) =    -24.57164  eV     1   --> A_1  L_1       
     e(  3 -  4) =    -24.57098  eV     2   --> E    L_3       
     e(  5 -  5) =    -19.11933  eV     1   --> A_1  L_1       
     e(  6 -  6) =     -5.68105  eV     1   --> A_1  L_1       
     e(  7 -  8) =     -4.86599  eV     2   --> E    L_3       
     e(  9 - 10) =     -2.69313  eV     2   --> E    L_3       
     e( 11 - 11) =     -2.20650  eV     1   --> A_1  L_1       
     e( 12 - 12) =      7.40409  eV     1   --> A_1  L_1       
     e( 13 - 14) =      8.49010  eV     2   --> E    L_3       
     e( 15 - 16) =      8.66999  eV     2   --> E    L_3       
     e( 17 - 17) =      8.77606  eV     1   --> A_1  L_1       
     e( 18 - 19) =     10.53624  eV     2   --> E    L_3       
     e( 20 - 20) =     10.65615  eV     1   --> A_2  L_2       
     e( 21 - 21) =     14.83913  eV     1   -->   ?
     e( 22 - 22) =     14.83925  eV     1   -->   ?
     e( 23 - 23) =     14.91481  eV     1   --> A_1  L_1       
     e( 24 - 24) =     15.79070  eV     1   -->   ?
     e( 25 - 25) =     15.79091  eV     1   -->   ?

 **************************************************************************

 **************************************************************************

                    xk=(   0.22500,   0.22500,   0.22500  )

     Band symmetry, C_3v (3m)   point group:

     e(  1 -  1) =    -50.68064  eV     1   --> A_1  L_1       
     e(  2 -  2) =    -24.56958  eV     1   --> A_1  L_1       
     e(  3 -  4) =    -24.56889  eV     2   --> E    L_3       
     e(  5 -  5) =    -19.12956  eV     1   --> A_1  L_1       
     e(  6 -  6) =     -5.73945  eV     1   --> A_1  L_1       
     e(  7 -  8) =     -4.86622  eV     2   --> E    L_3       
     e(  9 - 10) =     -2.66591  eV     2   --> E    L_3       
     e( 11 - 11) =     -2.20837  eV     1   --> A_1  L_1       
     e( 12 - 12) =      7.49732  eV     1   --> A_1  L_1       
     e( 13 - 14) =      8.54154  eV     2   --> E    L_3       
     e( 15 - 16) =      8.77658  eV     2   --> E    L_3       
     e( 17 - 17) =      9.06470  eV     1   --> A_1  L_1       
     e( 18 - 19) =     10.55654  eV     2   --> E    L_3       
     e( 20 - 20) =     10.56344  eV     1   --> A_2  L_2       
     e( 21 - 21) =     14.68950  eV     1   -->   ?
     e( 22 - 22) =     14.68976  eV     1   -->   ?
     e( 23 - 23) =     14.74494  eV     1   --> A_1  L_1       
     e( 24 - 24) =     15.75054  eV     1   -->   ?
     e( 25 - 25) =     15.75067  eV     1   -->   ?

 **************************************************************************

 **************************************************************************

                    xk=(   0.20000,   0.20000,   0.20000  )

     Band symmetry, C_3v (3m)   point group:

     e(  1 -  1) =    -50.68076  eV     1   --> A_1  L_1       
     e(  2 -  2) =    -24.56758  eV     1   --> A_1  L_1       
     e(  3 -  4) =    -24.56687  eV     2   --> E    L_3       
     e(  5 -  5) =    -19.13982  eV     1   --> A_1  L_1       
     e(  6 -  6) =     -5.78044  eV     1   --> A_1  L_1       
     e(  7 -  8) =     -4.86000  eV     2   --> E    L_3       
     e(  9 - 10) =     -2.65106  eV     2   --> E    L_3       
     e( 11 - 11) =     -2.24013  eV     1   --> A_1  L_1       
     e( 12 - 12) =      7.62426  eV     1   --> A_1  L_1       
     e( 13 - 14) =      8.58336  eV     2   --> E    L_3       
     e( 15 - 16) =      8.90719  eV     2   --> E    L_3       
     e( 17 - 17) =      9.37090  eV     1   --> A_1  L_1       
     e( 18 - 18) =     10.47489  eV     1   --> A_2  L_2       
     e( 19 - 20) =     10.60782  eV     2   --> E    L_3       
     e( 21 - 21) =     14.53898  eV     1   -->   ?
     e( 22 - 22) =     14.53923  eV     1   -->   ?
     e( 23 - 23) =     14.57049  eV     1   --> A_1  L_1       
     e( 24 - 24) =     15.70120  eV     1   -->   ?
     e( 25 - 25) =     15.70140  eV     1   -->   ?

 **************************************************************************

 **************************************************************************

                    xk=(   0.17500,   0.17500,   0.17500  )

     Band symmetry, C_3v (3m)   point group:

     e(  1 -  1) =    -50.68087  eV     1   --> A_1  L_1       
     e(  2 -  2) =    -24.56561  eV     1   --> A_1  L_1       
     e(  3 -  4) =    -24.56493  eV     2   --> E    L_3       
     e(  5 -  5) =    -19.14987  eV     1   --> A_1  L_1       
     e(  6 -  6) =     -5.80496  eV     1   --> A_1  L_1       
     e(  7 -  8) =     -4.84812  eV     2   --> E    L_3       
     e(  9 - 10) =     -2.64783  eV     2   --> E    L_3       
     e( 11 - 11) =     -2.29675  eV     1   --> A_1  L_1       
     e( 12 - 12) =      7.77981  eV     1   --> A_1  L_1       
     e( 13 - 14) =      8.61589  eV     2   --> E    L_3       
     e( 15 - 16) =      9.06120  eV     2   --> E    L_3       
     e( 17 - 17) =      9.68663  eV     1   --> A_1  L_1       
     e( 18 - 18) =     10.39210  eV     1   --> A_2  L_2       
     e( 19 - 20) =     10.68504  eV     2   --> E    L_3       
     e( 21 - 22) =     14.38988  eV     2   --> E    L_3       
     e( 23 - 23) =     14.39527  eV     1   --> A_1  L_1       
     e( 24 - 24) =     15.63476  eV     1   -->   ?
     e( 25 - 25) =     15.63490  eV     1   -->   ?

 **************************************************************************

 **************************************************************************

                    xk=(   0.15000,   0.15000,   0.15000  )

     Band symmetry, C_3v (3m)   point group:

     e(  1 -  1) =    -50.68098  eV     1   --> A_1  L_1       
     e(  2 -  2) =    -24.56375  eV     1   --> A_1  L_1       
     e(  3 -  4) =    -24.56314  eV     2   --> E    L_3       
     e(  5 -  5) =    -19.15941  eV     1   --> A_1  L_1       
     e(  6 -  6) =     -5.81491  eV     1   --> A_1  L_1       
     e(  7 -  8) =     -4.83184  eV     2   --> E    L_3       
     e(  9 - 10) =     -2.65452  eV     2   --> E    L_3       
     e( 11 - 11) =     -2.37140  eV     1   --> A_1  L_1       
     e( 12 - 12) =      7.95454  eV     1   --> A_1  L_1       
     e( 13 - 14) =      8.64027  eV     2   --> E    L_3       
     e( 15 - 16) =      9.23546  eV     2   --> E    L_3       
     e( 17 - 17) =     10.00399  eV     1   --> A_1  L_1       
     e( 18 - 18) =     10.31694  eV     1   --> A_2  L_2       
     e( 19 - 20) =     10.78113  eV     2   --> E    L_3       
     e( 21 - 21) =     14.22408  eV     1   --> A_1  L_1       
     e( 22 - 22) =     14.24351  eV     1   -->   ?
     e( 23 - 23) =     14.24361  eV     1   -->   ?

 **************************************************************************

 **************************************************************************

                    xk=(   0.12500,   0.12500,   0.12500  )

     Band symmetry, C_3v (3m)   point group:

     e(  1 -  1) =    -50.68108  eV     1   --> A_1  L_1       
     e(  2 -  2) =    -24.56204  eV     1   --> A_1  L_1       
     e(  3 -  4) =    -24.56154  eV     2   --> E    L_3       
     e(  5 -  5) =    -19.16816  eV     1   --> A_1  L_1       
     e(  6 -  6) =     -5.81294  eV     1   --> A_1  L_1       
     e(  7 -  8) =     -4.81276  eV     2   --> E    L_3       
     e(  9 - 10) =     -2.66860  eV     2   --> E    L_3       
     e( 11 - 11) =     -2.45601  eV     1   --> A_1  L_1       
     e( 12 - 12) =      8.13623  eV     1   --> A_1  L_1       
     e( 13 - 14) =      8.65811  eV     2   --> E    L_3       
     e( 15 - 16) =      9.42379  eV     2   --> E    L_3       
     e( 17 - 17) =     10.25069  eV     1   --> A_2  L_2       
     e( 18 - 18) =     10.31395  eV     1   --> A_1  L_1       
     e( 19 - 20) =     10.88774  eV     2   --> E    L_3       
     e( 21 - 21) =     14.06212  eV     1   --> A_1  L_1       
     e( 22 - 23) =     14.10052  eV     2   --> E    L_3       
     e( 24 - 25) =     15.41236  eV     2   --> E    L_3       

 **************************************************************************

 **************************************************************************

                    xk=(   0.10000,   0.10000,   0.10000  )

     Band symmetry, C_3v (3m)   point group:

     e(  1 -  1) =    -50.68115  eV     1   --> A_1  L_1       
     e(  2 -  2) =    -24.56052  eV     1   --> A_1  L_1       
     e(  3 -  4) =    -24.56017  eV     2   --> E    L_3       
     e(  5 -  5) =    -19.17583  eV     1   --> A_1  L_1       
     e(  6 -  6) =     -5.80262  eV     1   --> A_1  L_1       
     e(  7 -  8) =     -4.79283  eV     2   --> E    L_3       
     e(  9 - 10) =     -2.68692  eV     2   --> E    L_3       
     e( 11 - 11) =     -2.54185  eV     1   --> A_1  L_1       
     e( 12 - 12) =      8.31119  eV     1   --> A_1  L_1       
     e( 13 - 14) =      8.67095  eV     2   --> E    L_3       
     e( 15 - 16) =      9.61617  eV     2   --> E    L_3       
     e( 17 - 17) =     10.19492  eV     1   --> A_2  L_2       
     e( 18 - 18) =     10.60518  eV     1   --> A_1  L_1       
     e( 19 - 20) =     10.99583  eV     2   --> E    L_3       
     e( 21 - 21) =     13.91518  eV     1   --> A_1  L_1       
     e( 22 - 23) =     13.96201  eV     2   --> E    L_3       
     e( 24 - 25) =     15.25645  eV     2   --> E    L_3       

 **************************************************************************

 **************************************************************************

                    xk=(   0.07500,   0.07500,   0.07500  )

     Band symmetry, C_3v (3m)   point group:

     e(  1 -  1) =    -50.68122  eV     1   --> A_1  L_1       
     e(  2 -  2) =    -24.55929  eV     1   --> A_1  L_1       
     e(  3 -  4) =    -24.55907  eV     2   --> E    L_3       
     e(  5 -  5) =    -19.18213  eV     1   --> A_1  L_1       
     e(  6 -  6) =     -5.78803  eV     1   --> A_1  L_1       
     e(  7 -  8) =     -4.77420  eV     2   --> E    L_3       
     e(  9 - 10) =     -2.70606  eV     2   --> E    L_3       
     e( 11 - 11) =     -2.62024  eV     1   --> A_1  L_1       
     e( 12 - 12) =      8.46558  eV     1   --> A_1  L_1       
     e( 13 - 14) =      8.67992  eV     2   --> E    L_3       
     e( 15 - 16) =      9.79821  eV     2   --> E    L_3       
     e( 17 - 17) =     10.15041  eV     1   --> A_2  L_2       
     e( 18 - 18) =     10.86295  eV     1   --> A_1  L_1       
     e( 19 - 20) =     11.09571  eV     2   --> E    L_3       
     e( 21 - 21) =     13.78959  eV     1   --> A_1  L_1       
     e( 22 - 23) =     13.83124  eV     2   --> E    L_3       
     e( 24 - 25) =     15.09825  eV     2   --> E    L_3       

 **************************************************************************

 **************************************************************************

                    xk=(   0.05000,   0.05000,   0.05000  )

     Band symmetry, C_3v (3m)   point group:

     e(  1 -  1) =    -50.68127  eV     1   --> A_1  L_1       
     e(  2 -  2) =    -24.55838  eV     1   --> A_1  L_1       
     e(  5 -  5) =    -19.18683  eV     1   --> A_1  L_1       
     e(  6 -  6) =     -5.77347  eV     1   --> A_1  L_1       
     e(  7 -  8) =     -4.75896  eV     2   --> E    L_3       
     e(  9 - 10) =     -2.72267  eV     2   --> E    L_3       
     e( 11 - 11) =     -2.68310  eV     1   --> A_1  L_1       
     e( 12 - 12) =      8.58658  eV     1   --> A_1  L_1       
     e( 13 - 14) =      8.68585  eV     2   --> E    L_3       
     e( 15 - 16) =      9.95136  eV     2   --> E    L_3       
     e( 17 - 17) =     10.11810  eV     1   --> A_2  L_2       
     e( 18 - 18) =     11.06924  eV     1   --> A_1  L_1       
     e( 19 - 20) =     11.17775  eV     2   --> E    L_3       
     e( 21 - 21) =     13.69196  eV     1   --> A_1  L_1       
     e( 22 - 23) =     13.71755  eV     2   --> E    L_3       
     e( 24 - 25) =     14.96598  eV     2   --> E    L_3       

 **************************************************************************

 **************************************************************************

                    xk=(   0.02500,   0.02500,   0.02500  )

     Band symmetry, C_3v (3m)   point group:

     e(  1 -  1) =    -50.68130  eV     1   --> A_1  L_1       
     e(  2 -  4) =    -24.55782  eV     3   --> A_1  L_1       
     e(  2 -  4) =    -24.55782  eV     3   --> E    L_3       
     e(  5 -  5) =    -19.18974  eV     1   --> A_1  L_1       
     e(  6 -  6) =     -5.76285  eV     1   --> A_1  L_1       
     e(  7 -  8) =     -4.74898  eV     2   --> E    L_3       
     e(  9 - 10) =     -2.73392  eV     2   --> E    L_3       
     e( 11 - 11) =     -2.72380  eV     1   --> A_1  L_1       
     e( 12 - 12) =      8.66379  eV     1   --> A_1  L_1       
     e( 13 - 14) =      8.68923  eV     2   --> E    L_3       
     e( 15 - 16) =     10.05497  eV     2   --> E    L_3       
     e( 17 - 17) =     10.09844  eV     1   --> A_2  L_2       
     e( 18 - 18) =     11.20435  eV     1   --> A_1  L_1       
     e( 19 - 20) =     11.23229  eV     2   --> E    L_3       
     e( 21 - 21) =     13.62937  eV     1   --> A_1  L_1       
     e( 22 - 23) =     13.63715  eV     2   --> E    L_3       
     e( 24 - 25) =     14.88009  eV     2   --> E    L_3       

 **************************************************************************

 **************************************************************************

                    xk=(   0.00000,   0.00000,   0.00000  )

     point group O_h (m-3m) 
     there are 10 classes
     the character table:

       E     8C3   3C2   6C4   6C2'  i     8S6   3s_h  6S4   6s_d 
A_1g   1.00  1.00  1.00  1.00  1.00  1.00  1.00  1.00  1.00  1.00
A_2g   1.00  1.00  1.00 -1.00 -1.00  1.00  1.00  1.00 -1.00 -1.00
E_g    2.00 -1.00  2.00  0.00  0.00  2.00 -1.00  2.00  0.00  0.00
T_1g   3.00  0.00 -1.00  1.00 -1.00  3.00  0.00 -1.00  1.00 -1.00
T_2g   3.00  0.00 -1.00 -1.00  1.00  3.00  0.00 -1.00 -1.00  1.00
A_1u   1.00  1.00  1.00  1.00  1.00 -1.00 -1.00 -1.00 -1.00 -1.00
A_2u   1.00  1.00  1.00 -1.00 -1.00 -1.00 -1.00 -1.00  1.00  1.00
E_u    2.00 -1.00  2.00  0.00  0.00 -2.00  1.00 -2.00  0.00  0.00
T_1u   3.00  0.00 -1.00  1.00 -1.00 -3.00  0.00  1.00 -1.00  1.00
T_2u   3.00  0.00 -1.00 -1.00  1.00 -3.00  0.00  1.00  1.00 -1.00

     the symmetry operations in each class and the name of the first element:

     E        1
                                                                 
     8C3     17   19   20   18   24   21   22   23
                                                                 
     3C2      2    4    3
                                                                 
     6C4      7    8   15   16   12   11
                                                                 
     6C2'     5    6   14   13   10    9
                                                                 
     i       25
                                                                 
     8S6     41   43   44   42   48   45   46   47
                                                                 
     3s_h    26   28   27
                                                                 
     6S4     31   32   39   40   36   35
                                                                 
     6s_d    29   30   38   37   34   33
                                                                 

     Band symmetry, O_h (m-3m)  point group:

     e(  1 -  1) =    -50.68130  eV     1   --> A_1g G_1   G_1+
     e(  2 -  4) =    -24.55760  eV     3   --> T_1u G_15  G_4-
     e(  5 -  5) =    -19.19071  eV     1   --> A_1g G_1   G_1+
     e(  6 -  6) =     -5.75899  eV     1   --> A_1g G_1   G_1+
     e(  7 -  8) =     -4.74549  eV     2   --> E_g  G_12  G_3+
     e(  9 - 11) =     -2.73789  eV     3   --> T_1u G_15  G_4-
     e( 12 - 14) =      8.69034  eV     3   --> T_1u G_15  G_4-
     e( 15 - 17) =     10.09190  eV     3   --> T_2u G_25  G_5-
     e( 18 - 20) =     11.25155  eV     3   --> T_1u G_15  G_4-
     e( 21 - 23) =     13.60774  eV     3   --> T_2g G_25' G_5+
     e( 24 - 25) =     14.85050  eV     2   --> E_g  G_12  G_3+

 **************************************************************************

 **************************************************************************

                    xk=(   0.00000,   0.02500,   0.00000  )

     point group C_4v (4mm) 
     there are  5 classes
     the character table:

       E     2C4   C2    2s_v  2s_d 
A_1    1.00  1.00  1.00  1.00  1.00
A_2    1.00  1.00  1.00 -1.00 -1.00
B_1    1.00 -1.00  1.00  1.00 -1.00
B_2    1.00 -1.00  1.00 -1.00  1.00
E      2.00  0.00 -2.00  0.00  0.00

     the symmetry operations in each class and the name of the first element:

     E        1
                                                                 
     2C4      3    4
                                                                 
     C2       2
                                                                 
     2s_v     5    6
                                                                 
     2s_d     7    8
                                                                 

     Band symmetry, C_4v (4mm)  point group:

     e(  1 -  1) =    -50.68130  eV     1   --> A_1  G_1 D_1   
     e(  2 -  2) =    -24.55782  eV     1   --> A_1  G_1 D_1   
     e(  3 -  4) =    -24.55762  eV     2   --> E    G_5 D_5   
     e(  5 -  5) =    -19.19039  eV     1   --> A_1  G_1 D_1   
     e(  6 -  6) =     -5.76031  eV     1   --> A_1  G_1 D_1   
     e(  7 -  7) =     -4.74806  eV     1   --> A_1  G_1 D_1   
     e(  8 -  8) =     -4.74524  eV     1   --> B_1  G_3 D_2   
     e(  9 - 10) =     -2.73737  eV     2   --> E    G_5 D_5   
     e( 11 - 11) =     -2.73153  eV     1   --> A_1  G_1 D_1   
     e( 12 - 12) =      8.68331  eV     1   --> A_1  G_1 D_1   
     e( 13 - 14) =      8.68904  eV     2   --> E    G_5 D_5   
     e( 15 - 15) =     10.08402  eV     1   -->   ?
     e( 16 - 17) =     10.08441  eV     2   -->   ?
     e( 18 - 18) =     11.23210  eV     1   --> A_1  G_1 D_1   
     e( 19 - 20) =     11.24687  eV     2   --> E    G_5 D_5   
     e( 21 - 21) =     13.60864  eV     1   --> B_2  G_4 D_2'  
     e( 22 - 23) =     13.62088  eV     2   --> E    G_5 D_5   
     e( 24 - 24) =     14.85897  eV     1   --> A_1  G_1 D_1   
     e( 25 - 25) =     14.86178  eV     1   --> B_1  G_3 D_2   

 **************************************************************************

 **************************************************************************

                    xk=(   0.00000,   0.05000,   0.00000  )

     Band symmetry, C_4v (4mm)  point group:

     e(  1 -  1) =    -50.68129  eV     1   --> A_1  G_1 D_1   
     e(  2 -  2) =    -24.55837  eV     1   --> A_1  G_1 D_1   
     e(  3 -  4) =    -24.55759  eV     2   --> E    G_5 D_5   
     e(  5 -  5) =    -19.18941  eV     1   --> A_1  G_1 D_1   
     e(  6 -  6) =     -5.76445  eV     1   --> A_1  G_1 D_1   
     e(  7 -  7) =     -4.75532  eV     1   --> A_1  G_1 D_1   
     e(  8 -  8) =     -4.74446  eV     1   --> B_1  G_3 D_2   
     e(  9 - 10) =     -2.73582  eV     2   --> E    G_5 D_5   
     e( 11 - 11) =     -2.71285  eV     1   --> A_1  G_1 D_1   
     e( 12 - 12) =      8.66241  eV     1   --> A_1  G_1 D_1   
     e( 13 - 14) =      8.68512  eV     2   --> E    G_5 D_5   
     e( 15 - 15) =     10.06092  eV     1   --> B_1  G_3 D_2   
     e( 16 - 17) =     10.06260  eV     2   --> E    G_5 D_5   
     e( 18 - 18) =     11.17522  eV     1   --> A_1  G_1 D_1   
     e( 19 - 20) =     11.23323  eV     2   --> E    G_5 D_5   
     e( 21 - 21) =     13.61141  eV     1   --> B_2  G_4 D_2'  
     e( 22 - 23) =     13.65967  eV     2   --> E    G_5 D_5   
     e( 24 - 24) =     14.88406  eV     1   --> A_1  G_1 D_1   
     e( 25 - 25) =     14.89507  eV     1   --> B_1  G_3 D_2   

 **************************************************************************

 **************************************************************************

                    xk=(   0.00000,   0.07500,   0.00000  )

     Band symmetry, C_4v (4mm)  point group:

     e(  1 -  1) =    -50.68128  eV     1   --> A_1  G_1 D_1   
     e(  2 -  2) =    -24.55931  eV     1   --> A_1  G_1 D_1   
     e(  3 -  4) =    -24.55755  eV     2   --> E    G_5 D_5   
     e(  5 -  5) =    -19.18782  eV     1   --> A_1  G_1 D_1   
     e(  6 -  6) =     -5.77172  eV     1   --> A_1  G_1 D_1   
     e(  7 -  7) =     -4.76602  eV     1   --> A_1  G_1 D_1   
     e(  8 -  8) =     -4.74319  eV     1   --> B_1  G_3 D_2   
     e(  9 - 10) =     -2.73327  eV     2   --> E    G_5 D_5   
     e( 11 - 11) =     -2.68286  eV     1   --> A_1  G_1 D_1   
     e( 12 - 12) =      8.62837  eV     1   --> A_1  G_1 D_1   
     e( 13 - 14) =      8.67856  eV     2   --> E    G_5 D_5   
     e( 15 - 15) =     10.02379  eV     1   --> B_1  G_3 D_2   
     e( 16 - 17) =     10.02772  eV     2   --> E    G_5 D_5   
     e( 18 - 18) =     11.08486  eV     1   --> A_1  G_1 D_1   
     e( 19 - 20) =     11.21163  eV     2   --> E    G_5 D_5   
     e( 21 - 21) =     13.61596  eV     1   --> B_2  G_4 D_2'  
     e( 22 - 23) =     13.72191  eV     2   --> E    G_5 D_5   
     e( 24 - 24) =     14.92465  eV     1   --> A_1  G_1 D_1   
     e( 25 - 25) =     14.94855  eV     1   --> B_1  G_3 D_2   

 **************************************************************************

 **************************************************************************

                    xk=(   0.00000,   0.10000,   0.00000  )

     Band symmetry, C_4v (4mm)  point group:

     e(  1 -  1) =    -50.68126  eV     1   --> A_1  G_1 D_1   
     e(  2 -  2) =    -24.56057  eV     1   --> A_1  G_1 D_1   
     e(  3 -  4) =    -24.55749  eV     2   --> E    G_5 D_5   
     e(  5 -  5) =    -19.18563  eV     1   --> A_1  G_1 D_1   
     e(  6 -  6) =     -5.78268  eV     1   --> A_1  G_1 D_1   
     e(  7 -  7) =     -4.77833  eV     1   --> A_1  G_1 D_1   
     e(  8 -  8) =     -4.74145  eV     1   --> B_1  G_3 D_2   
     e(  9 - 10) =     -2.72979  eV     2   --> E    G_5 D_5   
     e( 11 - 11) =     -2.64313  eV     1   --> A_1  G_1 D_1   
     e( 12 - 12) =      8.58221  eV     1   --> A_1  G_1 D_1   
     e( 13 - 14) =      8.66924  eV     2   --> E    G_5 D_5   
     e( 15 - 15) =      9.97419  eV     1   --> B_1  G_3 D_2   
     e( 16 - 17) =      9.98178  eV     2   --> E    G_5 D_5   
     e( 18 - 18) =     10.96657  eV     1   --> A_1  G_1 D_1   
     e( 19 - 20) =     11.18347  eV     2   --> E    G_5 D_5   
     e( 21 - 21) =     13.62218  eV     1   --> B_2  G_4 D_2'  
     e( 22 - 23) =     13.80451  eV     2   --> E    G_5 D_5   
     e( 24 - 24) =     14.97878  eV     1   --> A_1  G_1 D_1   
     e( 25 - 25) =     15.01942  eV     1   --> B_1  G_3 D_2   

 **************************************************************************

 **************************************************************************

                    xk=(   0.00000,   0.12500,   0.00000  )

     Band symmetry, C_4v (4mm)  point group:

     e(  1 -  1) =    -50.68123  eV     1   --> A_1  G_1 D_1   
     e(  2 -  2) =    -24.56215  eV     1   --> A_1  G_1 D_1   
     e(  3 -  4) =    -24.55742  eV     2   --> E    G_5 D_5   
     e(  5 -  5) =    -19.18292  eV     1   --> A_1  G_1 D_1   
     e(  6 -  6) =     -5.79788  eV     1   --> A_1  G_1 D_1   
     e(  7 -  7) =     -4.79020  eV     1   --> A_1  G_1 D_1   
     e(  8 -  8) =     -4.73929  eV     1   --> B_1  G_3 D_2   
     e(  9 - 10) =     -2.72546  eV     2   --> E    G_5 D_5   
     e( 11 - 11) =     -2.59553  eV     1   --> A_1  G_1 D_1   
     e( 12 - 12) =      8.52536  eV     1   --> A_1  G_1 D_1   
     e( 13 - 14) =      8.65708  eV     2   --> E    G_5 D_5   
     e( 15 - 15) =      9.91436  eV     1   --> B_1  G_3 D_2   
     e( 16 - 17) =      9.92725  eV     2   --> E    G_5 D_5   
     e( 18 - 18) =     10.82689  eV     1   --> A_1  G_1 D_1   
     e( 19 - 20) =     11.15027  eV     2   --> E    G_5 D_5   
     e( 21 - 21) =     13.62994  eV     1   --> B_2  G_4 D_2'  
     e( 22 - 23) =     13.90382  eV     2   --> E    G_5 D_5   
     e( 24 - 24) =     15.04393  eV     1   --> A_1  G_1 D_1   
     e( 25 - 25) =     15.10380  eV     1   --> B_1  G_3 D_2   

 **************************************************************************

 **************************************************************************

                    xk=(   0.00000,   0.15000,   0.00000  )

     Band symmetry, C_4v (4mm)  point group:

     e(  1 -  1) =    -50.68120  eV     1   --> A_1  G_1 D_1   
     e(  2 -  2) =    -24.56400  eV     1   --> A_1  G_1 D_1   
     e(  3 -  4) =    -24.55734  eV     2   --> E    G_5 D_5   
     e(  5 -  5) =    -19.17973  eV     1   --> A_1  G_1 D_1   
     e(  6 -  6) =     -5.81773  eV     1   --> A_1  G_1 D_1   
     e(  7 -  7) =     -4.79966  eV     1   --> A_1  G_1 D_1   
     e(  8 -  8) =     -4.73675  eV     1   --> B_1  G_3 D_2   
     e(  9 - 10) =     -2.72037  eV     2   --> E    G_5 D_5   
     e( 11 - 11) =     -2.54204  eV     1   --> A_1  G_1 D_1   
     e( 12 - 12) =      8.45943  eV     1   --> A_1  G_1 D_1   
     e( 13 - 14) =      8.64199  eV     2   --> E    G_5 D_5   
     e( 15 - 15) =      9.84673  eV     1   --> B_1  G_3 D_2   
     e( 16 - 17) =      9.86686  eV     2   --> E    G_5 D_5   
     e( 18 - 18) =     10.67218  eV     1   --> A_1  G_1 D_1   
     e( 19 - 20) =     11.11348  eV     2   --> E    G_5 D_5   
     e( 21 - 21) =     13.63904  eV     1   --> B_2  G_4 D_2'  
     e( 22 - 23) =     14.01594  eV     2   --> E    G_5 D_5   
     e( 24 - 24) =     15.11665  eV     1   --> A_1  G_1 D_1   
     e( 25 - 25) =     15.19731  eV     1   --> B_1  G_3 D_2   

 **************************************************************************

 **************************************************************************

                    xk=(   0.00000,   0.17500,   0.00000  )

     Band symmetry, C_4v (4mm)  point group:

     e(  1 -  1) =    -50.68116  eV     1   --> A_1  G_1 D_1   
     e(  2 -  2) =    -24.56606  eV     1   --> A_1  G_1 D_1   
     e(  3 -  4) =    -24.55724  eV     2   --> E    G_5 D_5   
     e(  5 -  5) =    -19.17616  eV     1   --> A_1  G_1 D_1   
     e(  6 -  6) =     -5.84236  eV     1   --> A_1  G_1 D_1   
     e(  7 -  7) =     -4.80517  eV     1   --> A_1  G_1 D_1   
     e(  8 -  8) =     -4.73391  eV     1   --> B_1  G_3 D_2   
     e(  9 - 10) =     -2.71465  eV     2   --> E    G_5 D_5   
     e( 11 - 11) =     -2.48462  eV     1   --> A_1  G_1 D_1   
     e( 12 - 12) =      8.38630  eV     1   --> A_1  G_1 D_1   
     e( 13 - 14) =      8.62393  eV     2   --> E    G_5 D_5   
     e( 15 - 15) =      9.77366  eV     1   --> B_1  G_3 D_2   
     e( 16 - 17) =      9.80333  eV     2   --> E    G_5 D_5   
     e( 18 - 18) =     10.50842  eV     1   --> A_1  G_1 D_1   
     e( 19 - 20) =     11.07449  eV     2   --> E    G_5 D_5   
     e( 21 - 21) =     13.64929  eV     1   --> B_2  G_4 D_2'  
     e( 22 - 23) =     14.13711  eV     2   --> E    G_5 D_5   
     e( 24 - 24) =     15.19266  eV     1   --> A_1  G_1 D_1   
     e( 25 - 25) =     15.29439  eV     1   --> B_1  G_3 D_2   

 **************************************************************************

 **************************************************************************

                    xk=(   0.00000,   0.20000,   0.00000  )

     Band symmetry, C_4v (4mm)  point group:

     e(  1 -  1) =    -50.68112  eV     1   --> A_1  G_1 D_1   
     e(  2 -  2) =    -24.56831  eV     1   --> A_1  G_1 D_1   
     e(  3 -  4) =    -24.55716  eV     2   --> E    G_5 D_5   
     e(  5 -  5) =    -19.17228  eV     1   --> A_1  G_1 D_1   
     e(  6 -  6) =     -5.87148  eV     1   --> A_1  G_1 D_1   
     e(  7 -  7) =     -4.80577  eV     1   --> A_1  G_1 D_1   
     e(  8 -  8) =     -4.73082  eV     1   --> B_1  G_3 D_2   
     e(  9 - 10) =     -2.70844  eV     2   --> E    G_5 D_5   
     e( 11 - 11) =     -2.42512  eV     1   --> A_1  G_1 D_1   
     e( 12 - 12) =      8.30791  eV     1   --> A_1  G_1 D_1   
     e( 13 - 14) =      8.60293  eV     2   --> E    G_5 D_5   
     e( 15 - 15) =      9.69745  eV     1   --> B_1  G_3 D_2   
     e( 16 - 17) =      9.73921  eV     2   --> E    G_5 D_5   
     e( 18 - 18) =     10.34085  eV     1   --> A_1  G_1 D_1   
     e( 19 - 20) =     11.03431  eV     2   --> E    G_5 D_5   
     e( 21 - 21) =     13.66039  eV     1   --> B_2  G_4 D_2'  
     e( 22 - 23) =     14.26372  eV     2   --> E    G_5 D_5   
     e( 24 - 24) =     15.26754  eV     1   --> A_1  G_1 D_1   
     e( 25 - 25) =     15.38944  eV     1   --> B_1  G_3 D_2   

 **************************************************************************

 **************************************************************************

                    xk=(   0.00000,   0.22500,   0.00000  )

     Band symmetry, C_4v (4mm)  point group:

     e(  1 -  1) =    -50.68109  eV     1   --> A_1  G_1 D_1   
     e(  2 -  2) =    -24.57067  eV     1   --> A_1  G_1 D_1   
     e(  3 -  4) =    -24.55705  eV     2   --> E    G_5 D_5   
     e(  5 -  5) =    -19.16820  eV     1   --> A_1  G_1 D_1   
     e(  6 -  6) =     -5.90441  eV     1   --> A_1  G_1 D_1   
     e(  7 -  7) =     -4.80116  eV     1   --> A_1  G_1 D_1   
     e(  8 -  8) =     -4.72756  eV     1   --> B_1  G_3 D_2   
     e(  9 - 10) =     -2.70188  eV     2   --> E    G_5 D_5   
     e( 11 - 11) =     -2.36522  eV     1   --> A_1  G_1 D_1   
     e( 12 - 12) =      8.22617  eV     1   --> A_1  G_1 D_1   
     e( 13 - 14) =      8.57916  eV     2   --> E    G_5 D_5   
     e( 15 - 15) =      9.62021  eV     1   --> B_1  G_3 D_2   
     e( 16 - 17) =      9.67673  eV     2   --> E    G_5 D_5   
     e( 18 - 18) =     10.17387  eV     1   --> A_1  G_1 D_1   
     e( 19 - 20) =     10.99406  eV     2   --> E    G_5 D_5   
     e( 21 - 21) =     13.67216  eV     1   --> B_2  G_4 D_2'  
     e( 22 - 22) =     14.39248  eV     1   -->   ?
     e( 23 - 23) =     14.39260  eV     1   -->   ?
     e( 24 - 24) =     15.33676  eV     1   --> A_1  G_1 D_1   
     e( 25 - 25) =     15.47682  eV     1   --> B_1  G_3 D_2   

 **************************************************************************

 **************************************************************************

                    xk=(   0.00000,   0.25000,   0.00000  )

     Band symmetry, C_4v (4mm)  point group:

     e(  1 -  1) =    -50.68104  eV     1   --> A_1  G_1 D_1   
     e(  2 -  2) =    -24.57309  eV     1   --> A_1  G_1 D_1   
     e(  3 -  4) =    -24.55694  eV     2   --> E    G_5 D_5   
     e(  5 -  5) =    -19.16400  eV     1   --> A_1  G_1 D_1   
     e(  6 -  6) =     -5.94011  eV     1   --> A_1  G_1 D_1   
     e(  7 -  7) =     -4.79168  eV     1   --> A_1  G_1 D_1   
     e(  8 -  8) =     -4.72422  eV     1   --> B_1  G_3 D_2   
     e(  9 - 10) =     -2.69513  eV     2   --> E    G_5 D_5   
     e( 11 - 11) =     -2.30639  eV     1   --> A_1  G_1 D_1   
     e( 12 - 12) =      8.14328  eV     1   --> A_1  G_1 D_1   
     e( 13 - 14) =      8.55296  eV     2   --> E    G_5 D_5   
     e( 15 - 15) =      9.54405  eV     1   --> B_1  G_3 D_2   
     e( 16 - 17) =      9.61766  eV     2   --> E    G_5 D_5   
     e( 18 - 18) =     10.01146  eV     1   --> A_1  G_1 D_1   
     e( 19 - 20) =     10.95455  eV     2   --> E    G_5 D_5   
     e( 21 - 21) =     13.68429  eV     1   --> B_2  G_4 D_2'  
     e( 22 - 22) =     14.52048  eV     1   -->   ?
     e( 23 - 23) =     14.52060  eV     1   -->   ?
     e( 24 - 24) =     15.39792  eV     1   -->   ?

 **************************************************************************

 **************************************************************************

                    xk=(   0.00000,   0.27500,   0.00000  )

     Band symmetry, C_4v (4mm)  point group:

     e(  1 -  1) =    -50.68100  eV     1   --> A_1  G_1 D_1   
     e(  2 -  2) =    -24.57548  eV     1   --> A_1  G_1 D_1   
     e(  3 -  4) =    -24.55683  eV     2   --> E    G_5 D_5   
     e(  5 -  5) =    -19.15980  eV     1   --> A_1  G_1 D_1   
     e(  6 -  6) =     -5.97734  eV     1   --> A_1  G_1 D_1   
     e(  7 -  7) =     -4.77807  eV     1   --> A_1  G_1 D_1   
     e(  8 -  8) =     -4.72087  eV     1   --> B_1  G_3 D_2   
     e(  9 - 10) =     -2.68836  eV     2   --> E    G_5 D_5   
     e( 11 - 11) =     -2.24991  eV     1   --> A_1  G_1 D_1   
     e( 12 - 12) =      8.06118  eV     1   --> A_1  G_1 D_1   
     e( 13 - 14) =      8.52490  eV     2   --> E    G_5 D_5   
     e( 15 - 15) =      9.47041  eV     1   --> B_1  G_3 D_2   
     e( 16 - 17) =      9.56340  eV     2   --> E    G_5 D_5   
     e( 18 - 18) =      9.85676  eV     1   --> A_1  G_1 D_1   
     e( 19 - 20) =     10.91656  eV     2   --> E    G_5 D_5   
     e( 21 - 21) =     13.69647  eV     1   --> B_2  G_4 D_2'  
     e( 22 - 23) =     14.64457  eV     2   --> E    G_5 D_5   
     e( 24 - 24) =     15.44760  eV     1   --> A_1  G_1 D_1   
     e( 25 - 25) =     15.61259  eV     1   --> B_1  G_3 D_2   

 **************************************************************************

 **************************************************************************

                    xk=(   0.00000,   0.30000,   0.00000  )

     Band symmetry, C_4v (4mm)  point group:

     e(  1 -  1) =    -50.68096  eV     1   --> A_1  G_1 D_1   
     e(  2 -  2) =    -24.57781  eV     1   --> A_1  G_1 D_1   
     e(  3 -  4) =    -24.55673  eV     2   --> E    G_5 D_5   
     e(  5 -  5) =    -19.15569  eV     1   --> A_1  G_1 D_1   
     e(  6 -  6) =     -6.01472  eV     1   --> A_1  G_1 D_1   
     e(  7 -  7) =     -4.76140  eV     1   --> A_1  G_1 D_1   
     e(  8 -  8) =     -4.71759  eV     1   --> B_1  G_3 D_2   
     e(  9 - 10) =     -2.68173  eV     2   --> E    G_5 D_5   
     e( 11 - 11) =     -2.19689  eV     1   --> A_1  G_1 D_1   
     e( 12 - 12) =      7.98164  eV     1   --> A_1  G_1 D_1   
     e( 13 - 14) =      8.49573  eV     2   --> E    G_5 D_5   
     e( 15 - 15) =      9.40105  eV     1   --> B_1  G_3 D_2   
     e( 16 - 17) =      9.51484  eV     2   --> E    G_5 D_5   
     e( 18 - 18) =      9.71243  eV     1   --> A_1  G_1 D_1   
     e( 19 - 20) =     10.88080  eV     2   --> E    G_5 D_5   
     e( 21 - 21) =     13.70841  eV     1   --> B_2  G_4 D_2'  
     e( 22 - 22) =     14.76213  eV     1   -->   ?
     e( 23 - 23) =     14.76246  eV     1   -->   ?
     e( 24 - 24) =     15.48790  eV     1   --> A_1  G_1 D_1   
     e( 25 - 25) =     15.65840  eV     1   --> B_1  G_3 D_2   

 **************************************************************************

 **************************************************************************

                    xk=(   0.00000,   0.32500,   0.00000  )

     Band symmetry, C_4v (4mm)  point group:

     e(  1 -  1) =    -50.68093  eV     1   --> A_1  G_1 D_1   
     e(  2 -  2) =    -24.58005  eV     1   --> A_1  G_1 D_1   
     e(  3 -  4) =    -24.55663  eV     2   --> E    G_5 D_5   
     e(  5 -  5) =    -19.15178  eV     1   --> A_1  G_1 D_1   
     e(  6 -  6) =     -6.05096  eV     1   --> A_1  G_1 D_1   
     e(  7 -  7) =     -4.74289  eV     1   --> A_1  G_1 D_1   
     e(  8 -  8) =     -4.71448  eV     1   --> B_1  G_3 D_2   
     e(  9 - 10) =     -2.67542  eV     2   --> E    G_5 D_5   
     e( 11 - 11) =     -2.14825  eV     1   --> A_1  G_1 D_1   
     e( 12 - 12) =      7.90656  eV     1   --> A_1  G_1 D_1   
     e( 13 - 14) =      8.46638  eV     2   --> E    G_5 D_5   
     e( 15 - 15) =      9.33704  eV     1   --> B_1  G_3 D_2   
     e( 16 - 17) =      9.47240  eV     2   --> E    G_5 D_5   
     e( 18 - 18) =      9.58070  eV     1   --> A_1  G_1 D_1   
     e( 19 - 20) =     10.84788  eV     2   --> E    G_5 D_5   
     e( 21 - 21) =     13.71981  eV     1   --> B_2  G_4 D_2'  
     e( 22 - 23) =     14.87114  eV     2   --> E    G_5 D_5   
     e( 24 - 24) =     15.51899  eV     1   --> A_1  G_1 D_1   
     e( 25 - 25) =     15.69225  eV     1   -->   ?

 **************************************************************************

 **************************************************************************

                    xk=(   0.00000,   0.35000,   0.00000  )

     Band symmetry, C_4v (4mm)  point group:

     e(  1 -  1) =    -50.68089  eV     1   --> A_1  G_1 D_1   
     e(  2 -  2) =    -24.58209  eV     1   --> A_1  G_1 D_1   
     e(  3 -  4) =    -24.55654  eV     2   --> E    G_5 D_5   
     e(  5 -  5) =    -19.14817  eV     1   --> A_1  G_1 D_1   
     e(  6 -  6) =     -6.08482  eV     1   --> A_1  G_1 D_1   
     e(  7 -  7) =     -4.72377  eV     1   --> A_1  G_1 D_1   
     e(  8 -  8) =     -4.71160  eV     1   --> B_1  G_3 D_2   
     e(  9 - 10) =     -2.66957  eV     2   --> E    G_5 D_5   
     e( 11 - 11) =     -2.10476  eV     1   --> A_1  G_1 D_1   
     e( 12 - 12) =      7.83768  eV     1   --> A_1  G_1 D_1   
     e( 13 - 14) =      8.43796  eV     2   --> E    G_5 D_5   
     e( 15 - 15) =      9.27958  eV     1   --> B_1  G_3 D_2   
     e( 16 - 17) =      9.43628  eV     2   --> E    G_5 D_5   
     e( 18 - 18) =      9.46338  eV     1   --> A_1  G_1 D_1   
     e( 19 - 20) =     10.81832  eV     2   --> E    G_5 D_5   
     e( 21 - 21) =     13.73037  eV     1   --> B_2  G_4 D_2'  
     e( 22 - 23) =     14.96934  eV     2   --> E    G_5 D_5   
     e( 24 - 24) =     15.54296  eV     1   --> A_1  G_1 D_1   
     e( 25 - 25) =     15.71526  eV     1   --> B_1  G_3 D_2   

 **************************************************************************

 **************************************************************************

                    xk=(   0.00000,   0.37500,   0.00000  )

     Band symmetry, C_4v (4mm)  point group:

     e(  1 -  1) =    -50.68086  eV     1   --> A_1  G_1 D_1   
     e(  2 -  2) =    -24.58393  eV     1   --> A_1  G_1 D_1   
     e(  3 -  4) =    -24.55645  eV     2   --> E    G_5 D_5   
     e(  5 -  5) =    -19.14494  eV     1   --> A_1  G_1 D_1   
     e(  6 -  6) =     -6.11525  eV     1   --> A_1  G_1 D_1   
     e(  7 -  7) =     -4.70903  eV     1   --> B_1  G_3 D_2   
     e(  8 -  8) =     -4.70526  eV     1   --> A_1  G_1 D_1   
     e(  9 - 10) =     -2.66435  eV     2   --> E    G_5 D_5   
     e( 11 - 11) =     -2.06703  eV     1   --> A_1  G_1 D_1   
     e( 12 - 12) =      7.77647  eV     1   --> A_1  G_1 D_1   
     e( 13 - 14) =      8.41158  eV     2   --> E    G_5 D_5   
     e( 15 - 15) =      9.22950  eV     1   --> B_1  G_3 D_2   
     e( 16 - 16) =      9.36194  eV     1   --> A_1  G_1 D_1   
     e( 17 - 18) =      9.40639  eV     2   --> E    G_5 D_5   
     e( 19 - 20) =     10.79259  eV     2   --> E    G_5 D_5   
     e( 21 - 21) =     13.73983  eV     1   --> B_2  G_4 D_2'  
     e( 22 - 22) =     15.05491  eV     1   -->   ?
     e( 23 - 23) =     15.05541  eV     1   -->   ?
     e( 24 - 24) =     15.56056  eV     1   --> A_1  G_1 D_1   
     e( 25 - 25) =     15.73196  eV     1   --> B_1  G_3 D_2   

 **************************************************************************

 **************************************************************************

                    xk=(   0.00000,   0.40000,   0.00000  )

     Band symmetry, C_4v (4mm)  point group:

     e(  1 -  1) =    -50.68083  eV     1   --> A_1  G_1 D_1   
     e(  2 -  2) =    -24.58548  eV     1   --> A_1  G_1 D_1   
     e(  3 -  4) =    -24.55637  eV     2   --> E    G_5 D_5   
     e(  5 -  5) =    -19.14218  eV     1   --> A_1  G_1 D_1   
     e(  6 -  6) =     -6.14135  eV     1   --> A_1  G_1 D_1   
     e(  7 -  7) =     -4.70683  eV     1   --> B_1  G_3 D_2   
     e(  8 -  8) =     -4.68848  eV     1   --> A_1  G_1 D_1   
     e(  9 - 10) =     -2.65987  eV     2   --> E    G_5 D_5   
     e( 11 - 11) =     -2.03556  eV     1   --> A_1  G_1 D_1   
     e( 12 - 12) =      7.72439  eV     1   --> A_1  G_1 D_1   
     e( 13 - 14) =      8.38831  eV     2   --> E    G_5 D_5   
     e( 15 - 15) =      9.18762  eV     1   --> B_1  G_3 D_2   
     e( 16 - 16) =      9.27746  eV     1   --> A_1  G_1 D_1   
     e( 17 - 18) =      9.38252  eV     2   --> E    G_5 D_5   
     e( 19 - 20) =     10.77101  eV     2   --> E    G_5 D_5   
     e( 21 - 21) =     13.74793  eV     1   --> B_2  G_4 D_2'  
     e( 22 - 22) =     15.12705  eV     1   -->   ?
     e( 23 - 23) =     15.12721  eV     1   -->   ?
     e( 24 - 24) =     15.57390  eV     1   --> A_1  G_1 D_1   
     e( 25 - 25) =     15.74306  eV     1   -->   ?

 **************************************************************************

 **************************************************************************

                    xk=(   0.00000,   0.42500,   0.00000  )

     Band symmetry, C_4v (4mm)  point group:

     e(  1 -  1) =    -50.68081  eV     1   --> A_1  G_1 D_1   
     e(  2 -  2) =    -24.58674  eV     1   --> A_1  G_1 D_1   
     e(  3 -  4) =    -24.55630  eV     2   --> E    G_5 D_5   
     e(  5 -  5) =    -19.13996  eV     1   --> A_1  G_1 D_1   
     e(  6 -  6) =     -6.16240  eV     1   --> A_1  G_1 D_1   
     e(  7 -  7) =     -4.70506  eV     1   --> B_1  G_3 D_2   
     e(  8 -  8) =     -4.67436  eV     1   --> A_1  G_1 D_1   
     e(  9 - 10) =     -2.65626  eV     2   --> E    G_5 D_5   
     e( 11 - 11) =     -2.01073  eV     1   --> A_1  G_1 D_1   
     e( 12 - 12) =      7.68260  eV     1   --> A_1  G_1 D_1   
     e( 13 - 14) =      8.36913  eV     2   --> E    G_5 D_5   
     e( 15 - 15) =      9.15442  eV     1   --> B_1  G_3 D_2   
     e( 16 - 16) =      9.21089  eV     1   --> A_1  G_1 D_1   
     e( 17 - 18) =      9.36432  eV     2   --> E    G_5 D_5   
     e( 19 - 20) =     10.75394  eV     2   --> E    G_5 D_5   
     e( 21 - 21) =     13.75452  eV     1   --> B_2  G_4 D_2'  
     e( 22 - 22) =     15.18284  eV     1   -->   ?
     e( 23 - 23) =     15.18299  eV     1   -->   ?
     e( 24 - 24) =     15.58329  eV     1   --> A_1  G_1 D_1   

 **************************************************************************

 **************************************************************************

                    xk=(   0.00000,   0.45000,   0.00000  )

     Band symmetry, C_4v (4mm)  point group:

     e(  1 -  1) =    -50.68079  eV     1   --> A_1  G_1 D_1   
     e(  2 -  2) =    -24.58765  eV     1   --> A_1  G_1 D_1   
     e(  3 -  4) =    -24.55628  eV     2   --> E    G_5 D_5   
     e(  5 -  5) =    -19.13834  eV     1   --> A_1  G_1 D_1   
     e(  6 -  6) =     -6.17782  eV     1   --> A_1  G_1 D_1   
     e(  7 -  7) =     -4.70377  eV     1   --> B_1  G_3 D_2   
     e(  8 -  8) =     -4.66370  eV     1   --> A_1  G_1 D_1   
     e(  9 - 10) =     -2.65362  eV     2   --> E    G_5 D_5   
     e( 11 - 11) =     -1.99280  eV     1   --> A_1  G_1 D_1   
     e( 12 - 12) =      7.65209  eV     1   --> A_1  G_1 D_1   
     e( 13 - 14) =      8.35481  eV     2   --> E    G_5 D_5   
     e( 15 - 15) =      9.13042  eV     1   --> B_1  G_3 D_2   
     e( 16 - 16) =      9.16290  eV     1   --> A_1  G_1 D_1   
     e( 17 - 18) =      9.35152  eV     2   --> E    G_5 D_5   
     e( 19 - 20) =     10.74159  eV     2   --> E    G_5 D_5   
     e( 21 - 21) =     13.75931  eV     1   --> B_2  G_4 D_2'  
     e( 22 - 22) =     15.22420  eV     1   -->   ?
     e( 23 - 23) =     15.22441  eV     1   -->   ?
     e( 24 - 24) =     15.58961  eV     1   -->   ?
     e( 25 - 25) =     15.75546  eV     1   -->   ?

 **************************************************************************

 **************************************************************************

                    xk=(   0.00000,   0.47500,   0.00000  )

     Band symmetry, C_4v (4mm)  point group:

     e(  1 -  1) =    -50.68078  eV     1   --> A_1  G_1 D_1   
     e(  2 -  2) =    -24.58820  eV     1   --> A_1  G_1 D_1   
     e(  3 -  4) =    -24.55624  eV     2   --> E    G_5 D_5   
     e(  5 -  5) =    -19.13734  eV     1   --> A_1  G_1 D_1   
     e(  6 -  6) =     -6.18724  eV     1   --> A_1  G_1 D_1   
     e(  7 -  7) =     -4.70298  eV     1   --> B_1  G_3 D_2   
     e(  8 -  8) =     -4.65706  eV     1   --> A_1  G_1 D_1   
     e(  9 - 10) =     -2.65200  eV     2   --> E    G_5 D_5   
     e( 11 - 11) =     -1.98198  eV     1   --> A_1  G_1 D_1   
     e( 12 - 12) =      7.63349  eV     1   --> A_1  G_1 D_1   
     e( 13 - 14) =      8.34597  eV     2   --> E    G_5 D_5   
     e( 15 - 15) =      9.11588  eV     1   --> B_1  G_3 D_2   
     e( 16 - 16) =      9.13394  eV     1   --> A_1  G_1 D_1   
     e( 17 - 18) =      9.34394  eV     2   --> E    G_5 D_5   
     e( 19 - 20) =     10.73411  eV     2   --> E    G_5 D_5   
     e( 21 - 21) =     13.76225  eV     1   --> B_2  G_4 D_2'  
     e( 22 - 23) =     15.24802  eV     2   --> E    G_5 D_5   
     e( 24 - 24) =     15.59320  eV     1   --> A_1  G_1 D_1   
     e( 25 - 25) =     15.75915  eV     1   -->   ?

 **************************************************************************

 **************************************************************************

                    xk=(   0.00000,   0.50000,   0.00000  )

     point group D_4h(4/mmm)
     there are 10 classes
     the character table:

       E     2C4   C2    2C2'  2C2'' i     2S4   s_h   2s_v  2s_d 
A_1g   1.00  1.00  1.00  1.00  1.00  1.00  1.00  1.00  1.00  1.00
A_2g   1.00  1.00  1.00 -1.00 -1.00  1.00  1.00  1.00 -1.00 -1.00
B_1g   1.00 -1.00  1.00  1.00 -1.00  1.00 -1.00  1.00  1.00 -1.00
B_2g   1.00 -1.00  1.00 -1.00  1.00  1.00 -1.00  1.00 -1.00  1.00
E_g    2.00  0.00 -2.00  0.00  0.00  2.00  0.00 -2.00  0.00  0.00
A_1u   1.00  1.00  1.00  1.00  1.00 -1.00 -1.00 -1.00 -1.00 -1.00
A_2u   1.00  1.00  1.00 -1.00 -1.00 -1.00 -1.00 -1.00  1.00  1.00
B_1u   1.00 -1.00  1.00  1.00 -1.00 -1.00  1.00 -1.00 -1.00  1.00
B_2u   1.00 -1.00  1.00 -1.00  1.00 -1.00  1.00 -1.00  1.00 -1.00
E_u    2.00  0.00 -2.00  0.00  0.00 -2.00  0.00  2.00  0.00  0.00

     the symmetry operations in each class and the name of the first element:

     E        1
                                                                 
     2C4      7    8
                                                                 
     C2       3
                                                                 
     2C2'     2    4
                                                                 
     2C2''    5    6
                                                                 
     i        9
                                                                 
     2S4     15   16
                                                                 
     s_h     11
                                                                 
     2s_v    10   12
                                                                 
     2s_d    13   14
                                                                 

     Band symmetry, D_4h(4/mmm) point group:

     e(  1 -  1) =    -50.68077  eV     1   --> A_1g X_1  M_1  
     e(  2 -  2) =    -24.58837  eV     1   --> A_2u X_4' M_4' 
     e(  3 -  4) =    -24.55623  eV     2   --> E_u  X_5' M_5' 
     e(  5 -  5) =    -19.13700  eV     1   --> A_2u X_4' M_4' 
     e(  6 -  6) =     -6.19040  eV     1   --> A_1g X_1  M_1  
     e(  7 -  7) =     -4.70271  eV     1   --> B_1g X_2  M_2  
     e(  8 -  8) =     -4.65481  eV     1   --> A_2u X_4' M_4' 
     e(  9 - 10) =     -2.65146  eV     2   --> E_g  X_5  M_5  
     e( 11 - 11) =     -1.97836  eV     1   --> A_1g X_1  M_1  
     e( 12 - 12) =      7.62727  eV     1   --> A_1g X_1  M_1  
     e( 13 - 14) =      8.34299  eV     2   --> E_u  X_5' M_5' 
     e( 15 - 15) =      9.11102  eV     1   --> B_2u X_3' M_3' 
     e( 16 - 16) =      9.12429  eV     1   --> A_2u X_4' M_4' 
     e( 17 - 18) =      9.34145  eV     2   --> E_g  X_5  M_5  
     e( 19 - 20) =     10.73161  eV     2   --> E_u  X_5' M_5' 
     e( 21 - 21) =     13.76325  eV     1   --> B_2g X_3  M_3  
     e( 22 - 23) =     15.25625  eV     2   --> E_g  X_5  M_5  
     e( 24 - 24) =     15.59448  eV     1   --> A_1g X_1  M_1  

 **************************************************************************

 **************************************************************************

                    xk=(   0.02500,   0.50000,   0.00000  )

     point group C_2v (mm2) 
     there are  4 classes
     the character table:

       E     C2    s_v   s_v' 
A_1    1.00  1.00  1.00  1.00
A_2    1.00  1.00 -1.00 -1.00
B_1    1.00 -1.00  1.00 -1.00
B_2    1.00 -1.00 -1.00  1.00

     the symmetry operations in each class and the name of the first element:

     E        1
                                                                 
     C2       2
                                                                 
     s_v      4
                                                                 
     s_v'     3
                                                                 

     Band symmetry, C_2v (mm2)  point group:

     e(  1 -  1) =    -50.68077  eV     1   --> A_1  D_1  S_1  
     e(  2 -  2) =    -24.58835  eV     1   --> B_2  D_4  S_4  
     e(  3 -  3) =    -24.55644  eV     1   --> A_1  D_1  S_1  
     e(  4 -  4) =    -24.55623  eV     1   --> B_1  D_3  S_3  
     e(  5 -  5) =    -19.13677  eV     1   --> B_2  D_4  S_4  
     e(  6 -  6) =     -6.18703  eV     1   --> A_1  D_1  S_1  
     e(  7 -  7) =     -4.70266  eV     1   --> A_1  D_1  S_1  
     e(  8 -  8) =     -4.65893  eV     1   --> B_2  D_4  S_4  
     e(  9 -  9) =     -2.65088  eV     1   --> A_2  D_2  S_2  
     e( 10 - 10) =     -2.64884  eV     1   --> B_2  D_4  S_4  
     e( 11 - 11) =     -1.98089  eV     1   --> A_1  D_1  S_1  
     e( 12 - 12) =      7.62479  eV     1   --> A_1  D_1  S_1  
     e( 13 - 13) =      8.34389  eV     1   --> B_1  D_3  S_3  
     e( 14 - 14) =      8.34539  eV     1   --> A_1  D_1  S_1  
     e( 15 - 15) =      9.02406  eV     1   --> B_2  D_4  S_4  
     e( 16 - 16) =      9.12179  eV     1   --> B_2  D_4  S_4  
     e( 17 - 17) =      9.33599  eV     1   --> A_2  D_2  S_2  
     e( 18 - 18) =      9.43663  eV     1   --> B_2  D_4  S_4  
     e( 19 - 19) =     10.71780  eV     1   --> A_1  D_1  S_1  
     e( 20 - 20) =     10.72304  eV     1   --> B_1  D_3  S_3  
     e( 21 - 21) =     13.77460  eV     1   --> B_1  D_3  S_3  
     e( 22 - 22) =     15.25552  eV     1   -->   ?
     e( 23 - 23) =     15.25698  eV     1   -->   ?
     e( 24 - 24) =     15.59469  eV     1   --> A_1  D_1  S_1  
     e( 25 - 25) =     15.76450  eV     1   -->   ?

 **************************************************************************

 **************************************************************************

                    xk=(   0.05000,   0.50000,   0.00000  )

     Band symmetry, C_2v (mm2)  point group:

     e(  1 -  1) =    -50.68077  eV     1   --> A_1  D_1  S_1  
     e(  2 -  2) =    -24.58832  eV     1   --> B_2  D_4  S_4  
     e(  3 -  3) =    -24.55699  eV     1   --> A_1  D_1  S_1  
     e(  4 -  4) =    -24.55622  eV     1   --> B_1  D_3  S_3  
     e(  5 -  5) =    -19.13605  eV     1   --> B_2  D_4  S_4  
     e(  6 -  6) =     -6.17696  eV     1   --> A_1  D_1  S_1  
     e(  7 -  7) =     -4.70255  eV     1   --> A_1  D_1  S_1  
     e(  8 -  8) =     -4.67111  eV     1   --> B_2  D_4  S_4  
     e(  9 -  9) =     -2.64915  eV     1   --> A_2  D_2  S_2  
     e( 10 - 10) =     -2.64111  eV     1   --> B_2  D_4  S_4  
     e( 11 - 11) =     -1.98839  eV     1   --> A_1  D_1  S_1  
     e( 12 - 12) =      7.61751  eV     1   --> A_1  D_1  S_1  
     e( 13 - 13) =      8.34660  eV     1   --> B_1  D_3  S_3  
     e( 14 - 14) =      8.35210  eV     1   --> A_1  D_1  S_1  
     e( 15 - 15) =      8.86607  eV     1   --> B_2  D_4  S_4  
     e( 16 - 16) =      9.13994  eV     1   --> B_2  D_4  S_4  
     e( 17 - 17) =      9.31992  eV     1   --> A_2  D_2  S_2  
     e( 18 - 18) =      9.59360  eV     1   --> B_2  D_4  S_4  
     e( 19 - 19) =     10.67786  eV     1   --> A_1  D_1  S_1  
     e( 20 - 20) =     10.69792  eV     1   --> B_1  D_3  S_3  
     e( 21 - 21) =     13.80822  eV     1   --> B_1  D_3  S_3  
     e( 22 - 22) =     15.25416  eV     1   -->   ?
     e( 23 - 23) =     15.25997  eV     1   -->   ?
     e( 24 - 24) =     15.59549  eV     1   -->   ?
     e( 25 - 25) =     15.77874  eV     1   --> A_1  D_1  S_1  

 **************************************************************************

 **************************************************************************

                    xk=(   0.07500,   0.50000,   0.00000  )

     Band symmetry, C_2v (mm2)  point group:

     e(  1 -  1) =    -50.68075  eV     1   --> A_1  D_1  S_1  
     e(  2 -  2) =    -24.58825  eV     1   --> B_2  D_4  S_4  
     e(  3 -  3) =    -24.55789  eV     1   --> A_1  D_1  S_1  
     e(  4 -  4) =    -24.55618  eV     1   --> B_1  D_3  S_3  
     e(  5 -  5) =    -19.13487  eV     1   --> B_2  D_4  S_4  
     e(  6 -  6) =     -6.16027  eV     1   --> A_1  D_1  S_1  
     e(  7 -  7) =     -4.70258  eV     1   --> A_1  D_1  S_1  
     e(  8 -  8) =     -4.69087  eV     1   --> B_2  D_4  S_4  
     e(  9 -  9) =     -2.64633  eV     1   --> A_2  D_2  S_2  
     e( 10 - 10) =     -2.62864  eV     1   --> B_2  D_4  S_4  
     e( 11 - 11) =     -2.00061  eV     1   --> A_1  D_1  S_1  
     e( 12 - 12) =      7.60598  eV     1   --> A_1  D_1  S_1  
     e( 13 - 13) =      8.35103  eV     1   --> B_1  D_3  S_3  
     e( 14 - 14) =      8.36157  eV     1   --> A_1  D_1  S_1  
     e( 15 - 15) =      8.70053  eV     1   --> B_2  D_4  S_4  
     e( 16 - 16) =      9.16998  eV     1   --> B_2  D_4  S_4  
     e( 17 - 17) =      9.29360  eV     1   --> A_2  D_2  S_2  
     e( 18 - 18) =      9.75685  eV     1   --> B_2  D_4  S_4  
     e( 19 - 19) =     10.61546  eV     1   --> A_1  D_1  S_1  
     e( 20 - 20) =     10.65752  eV     1   --> B_1  D_3  S_3  
     e( 21 - 21) =     13.86255  eV     1   --> B_1  D_3  S_3  
     e( 22 - 22) =     15.25050  eV     1   --> B_2  D_4  S_4  
     e( 23 - 23) =     15.26284  eV     1   --> A_2  D_2  S_2  
     e( 24 - 24) =     15.59677  eV     1   --> A_1  D_1  S_1  
     e( 25 - 25) =     15.79800  eV     1   -->   ?

 **************************************************************************

 **************************************************************************

                    xk=(   0.10000,   0.50000,   0.00000  )

     Band symmetry, C_2v (mm2)  point group:

     e(  1 -  1) =    -50.68072  eV     1   --> A_1  D_1  S_1  
     e(  2 -  2) =    -24.58815  eV     1   --> B_2  D_4  S_4  
     e(  3 -  3) =    -24.55910  eV     1   --> A_1  D_1  S_1  
     e(  4 -  4) =    -24.55613  eV     1   --> B_1  D_3  S_3  
     e(  5 -  5) =    -19.13325  eV     1   --> B_2  D_4  S_4  
     e(  6 -  6) =     -6.13707  eV     1   --> A_1  D_1  S_1  
     e(  7 -  7) =     -4.71745  eV     1   --> B_2  D_4  S_4  
     e(  8 -  8) =     -4.70306  eV     1   --> A_1  D_1  S_1  
     e(  9 -  9) =     -2.64246  eV     1   --> A_2  D_2  S_2  
     e( 10 - 10) =     -2.61195  eV     1   --> B_2  D_4  S_4  
     e( 11 - 11) =     -2.01712  eV     1   --> A_1  D_1  S_1  
     e( 12 - 12) =      7.59080  eV     1   --> A_1  D_1  S_1  
     e( 13 - 13) =      8.35724  eV     1   --> B_1  D_3  S_3  
     e( 14 - 14) =      8.37168  eV     1   --> A_1  D_1  S_1  
     e( 15 - 15) =      8.53555  eV     1   --> B_2  D_4  S_4  
     e( 16 - 16) =      9.21104  eV     1   --> B_2  D_4  S_4  
     e( 17 - 17) =      9.25810  eV     1   --> A_2  D_2  S_2  
     e( 18 - 18) =      9.91845  eV     1   --> B_2  D_4  S_4  
     e( 19 - 19) =     10.53622  eV     1   --> A_1  D_1  S_1  
     e( 20 - 20) =     10.60422  eV     1   --> B_1  D_3  S_3  
     e( 21 - 21) =     13.93516  eV     1   --> B_1  D_3  S_3  
     e( 22 - 22) =     15.24790  eV     1   --> B_2  D_4  S_4  
     e( 23 - 23) =     15.26835  eV     1   --> A_2  D_2  S_2  
     e( 24 - 24) =     15.59853  eV     1   -->   ?
     e( 25 - 25) =     15.81648  eV     1   -->   ?

 **************************************************************************

 **************************************************************************

                    xk=(   0.12500,   0.50000,   0.00000  )

     Band symmetry, C_2v (mm2)  point group:

     e(  1 -  1) =    -50.68070  eV     1   --> A_1  D_1  S_1  
     e(  2 -  2) =    -24.58801  eV     1   --> B_2  D_4  S_4  
     e(  3 -  3) =    -24.56060  eV     1   --> A_1  D_1  S_1  
     e(  4 -  4) =    -24.55606  eV     1   --> B_1  D_3  S_3  
     e(  5 -  5) =    -19.13125  eV     1   --> B_2  D_4  S_4  
     e(  6 -  6) =     -6.10761  eV     1   --> A_1  D_1  S_1  
     e(  7 -  7) =     -4.74988  eV     1   --> B_2  D_4  S_4  
     e(  8 -  8) =     -4.70442  eV     1   --> A_1  D_1  S_1  
     e(  9 -  9) =     -2.63764  eV     1   --> A_2  D_2  S_2  
     e( 10 - 10) =     -2.59174  eV     1   --> B_2  D_4  S_4  
     e( 11 - 11) =     -2.03737  eV     1   --> A_1  D_1  S_1  
     e( 12 - 12) =      7.57259  eV     1   --> A_1  D_1  S_1  
     e( 13 - 13) =      8.36515  eV     1   --> B_1  D_3  S_3  
     e( 14 - 14) =      8.37380  eV     1   --> B_2  D_4  S_4  
     e( 15 - 15) =      8.37967  eV     1   --> A_1  D_1  S_1  
     e( 16 - 16) =      9.21449  eV     1   --> A_2  D_2  S_2  
     e( 17 - 17) =      9.26205  eV     1   --> B_2  D_4  S_4  
     e( 18 - 18) =     10.07542  eV     1   --> B_2  D_4  S_4  
     e( 19 - 19) =     10.44697  eV     1   --> A_1  D_1  S_1  
     e( 20 - 20) =     10.54030  eV     1   --> B_1  D_3  S_3  
     e( 21 - 21) =     14.02321  eV     1   --> B_1  D_3  S_3  
     e( 22 - 22) =     15.24499  eV     1   --> B_2  D_4  S_4  
     e( 23 - 23) =     15.27463  eV     1   --> A_2  D_2  S_2  
     e( 24 - 24) =     15.60066  eV     1   -->   ?
     e( 25 - 25) =     15.83314  eV     1   -->   ?

 **************************************************************************

 **************************************************************************

                    xk=(   0.15000,   0.50000,   0.00000  )

     Band symmetry, C_2v (mm2)  point group:

     e(  1 -  1) =    -50.68067  eV     1   --> A_1  D_1  S_1  
     e(  2 -  2) =    -24.58785  eV     1   --> B_2  D_4  S_4  
     e(  3 -  3) =    -24.56236  eV     1   --> A_1  D_1  S_1  
     e(  4 -  4) =    -24.55598  eV     1   --> B_1  D_3  S_3  
     e(  5 -  5) =    -19.12889  eV     1   --> B_2  D_4  S_4  
     e(  6 -  6) =     -6.07209  eV     1   --> A_1  D_1  S_1  
     e(  7 -  7) =     -4.78706  eV     1   --> B_2  D_4  S_4  
     e(  8 -  8) =     -4.70717  eV     1   --> A_1  D_1  S_1  
     e(  9 -  9) =     -2.63199  eV     1   --> A_2  D_2  S_2  
     e( 10 - 10) =     -2.56877  eV     1   --> B_2  D_4  S_4  
     e( 11 - 11) =     -2.06065  eV     1   --> A_1  D_1  S_1  
     e( 12 - 12) =      7.55185  eV     1   --> A_1  D_1  S_1  
     e( 13 - 13) =      8.21692  eV     1   --> B_2  D_4  S_4  
     e( 14 - 14) =      8.37471  eV     1   --> B_1  D_3  S_3  
     e( 15 - 15) =      8.38245  eV     1   --> A_1  D_1  S_1  
     e( 16 - 16) =      9.16414  eV     1   --> A_2  D_2  S_2  
     e( 17 - 17) =      9.32175  eV     1   --> B_2  D_4  S_4  
     e( 18 - 18) =     10.22595  eV     1   --> B_2  D_4  S_4  
     e( 19 - 19) =     10.35494  eV     1   --> A_1  D_1  S_1  
     e( 20 - 20) =     10.46850  eV     1   --> B_1  D_3  S_3  
     e( 21 - 21) =     14.12356  eV     1   --> B_1  D_3  S_3  
     e( 22 - 22) =     15.24420  eV     1   --> B_2  D_4  S_4  
     e( 23 - 23) =     15.28247  eV     1   --> A_2  D_2  S_2  
     e( 24 - 24) =     15.60318  eV     1   --> A_1  D_1  S_1  
     e( 25 - 25) =     15.84803  eV     1   -->   ?

 **************************************************************************

 **************************************************************************

                    xk=(   0.17500,   0.50000,   0.00000  )

     Band symmetry, C_2v (mm2)  point group:

     e(  1 -  1) =    -50.68063  eV     1   --> A_1  D_1  S_1  
     e(  2 -  2) =    -24.58767  eV     1   --> B_2  D_4  S_4  
     e(  3 -  3) =    -24.56434  eV     1   --> A_1  D_1  S_1  
     e(  4 -  4) =    -24.55588  eV     1   --> B_1  D_3  S_3  
     e(  5 -  5) =    -19.12625  eV     1   --> B_2  D_4  S_4  
     e(  6 -  6) =     -6.03079  eV     1   --> A_1  D_1  S_1  
     e(  7 -  7) =     -4.82781  eV     1   --> B_2  D_4  S_4  
     e(  8 -  8) =     -4.71193  eV     1   --> A_1  D_1  S_1  
     e(  9 -  9) =     -2.62563  eV     1   --> A_2  D_2  S_2  
     e( 10 - 10) =     -2.54383  eV     1   --> B_2  D_4  S_4  
     e( 11 - 11) =     -2.08618  eV     1   --> A_1  D_1  S_1  
[...]
     e( 25 - 25) =     15.74025  eV     1   -->   ?

 **************************************************************************

 **************************************************************************

                    xk=(   0.22500,   0.22500,   0.00000  )

     Band symmetry, C_2v (mm2)  point group:

     e(  1 -  1) =    -50.68086  eV     1   --> A_1  D_1  S_1  
     e(  2 -  2) =    -24.57019  eV     1   --> A_1  D_1  S_1  
     e(  3 -  3) =    -24.56952  eV     1   --> B_1  D_3  S_3  
     e(  4 -  4) =    -24.55650  eV     1   --> B_2  D_4  S_4  
     e(  5 -  5) =    -19.14813  eV     1   --> A_1  D_1  S_1  
     e(  6 -  6) =     -5.84893  eV     1   --> A_1  D_1  S_1  
     e(  7 -  7) =     -4.97391  eV     1   --> B_1  D_3  S_3  
     e(  8 -  8) =     -4.71171  eV     1   --> A_1  D_1  S_1  
     e(  9 -  9) =     -2.66420  eV     1   --> B_2  D_4  S_4  
     e( 10 - 10) =     -2.52958  eV     1   --> B_1  D_3  S_3  
     e( 11 - 11) =     -2.31734  eV     1   --> A_1  D_1  S_1  
     e( 12 - 12) =      7.81598  eV     1   --> A_1  D_1  S_1  
     e( 13 - 13) =      8.54431  eV     1   --> B_1  D_3  S_3  
     e( 14 - 14) =      8.55593  eV     1   --> B_2  D_4  S_4  
     e( 15 - 15) =      8.68320  eV     1   --> A_1  D_1  S_1  
     e( 16 - 16) =      9.29667  eV     1   --> A_2  D_2  S_2  
     e( 17 - 17) =      9.85753  eV     1   --> A_1  D_1  S_1  
     e( 18 - 18) =     10.11965  eV     1   --> B_1  D_3  S_3  
     e( 19 - 19) =     10.61834  eV     1   --> B_2  D_4  S_4  
     e( 20 - 20) =     10.73765  eV     1   --> B_1  D_3  S_3  
     e( 21 - 21) =     14.32954  eV     1   --> B_2  D_4  S_4  
     e( 22 - 22) =     14.52271  eV     1   --> A_2  D_2  S_2  
     e( 23 - 23) =     14.56540  eV     1   --> A_1  D_1  S_1  
     e( 24 - 24) =     15.58150  eV     1   -->   ?
     e( 25 - 25) =     15.69804  eV     1   -->   ?

 **************************************************************************

 **************************************************************************

                    xk=(   0.20000,   0.20000,   0.00000  )

     Band symmetry, C_2v (mm2)  point group:

     e(  1 -  1) =    -50.68095  eV     1   --> A_1  D_1  S_1  
     e(  2 -  2) =    -24.56802  eV     1   --> A_1  D_1  S_1  
     e(  3 -  3) =    -24.56738  eV     1   --> B_1  D_3  S_3  
     e(  4 -  4) =    -24.55672  eV     1   --> B_2  D_4  S_4  
     e(  5 -  5) =    -19.15550  eV     1   --> A_1  D_1  S_1  
     e(  6 -  6) =     -5.84892  eV     1   --> A_1  D_1  S_1  
     e(  7 -  7) =     -4.93633  eV     1   --> B_1  D_3  S_3  
     e(  8 -  8) =     -4.72191  eV     1   --> A_1  D_1  S_1  
     e(  9 -  9) =     -2.67788  eV     1   --> B_2  D_4  S_4  
     e( 10 - 10) =     -2.56332  eV     1   --> B_1  D_3  S_3  
     e( 11 - 11) =     -2.35823  eV     1   --> A_1  D_1  S_1  
     e( 12 - 12) =      7.93795  eV     1   --> A_1  D_1  S_1  
     e( 13 - 13) =      8.57380  eV     1   --> B_2  D_4  S_4  
     e( 14 - 14) =      8.59364  eV     1   --> B_1  D_3  S_3  
     e( 15 - 15) =      8.89965  eV     1   --> A_1  D_1  S_1  
     e( 16 - 16) =      9.41706  eV     1   --> A_2  D_2  S_2  
     e( 17 - 17) =     10.00390  eV     1   --> A_1  D_1  S_1  
     e( 18 - 18) =     10.11461  eV     1   --> B_1  D_3  S_3  
     e( 19 - 19) =     10.73349  eV     1   --> B_2  D_4  S_4  
     e( 20 - 20) =     10.76071  eV     1   --> B_1  D_3  S_3  
     e( 21 - 21) =     14.20433  eV     1   --> B_2  D_4  S_4  
     e( 22 - 22) =     14.38303  eV     1   --> A_2  D_2  S_2  
     e( 23 - 23) =     14.43868  eV     1   --> A_1  D_1  S_1  
     e( 24 - 24) =     15.52728  eV     1   -->   ?
     e( 25 - 25) =     15.63568  eV     1   -->   ?

 **************************************************************************

 **************************************************************************

                    xk=(   0.17500,   0.17500,   0.00000  )

     Band symmetry, C_2v (mm2)  point group:

     e(  1 -  1) =    -50.68102  eV     1   --> A_1  D_1  S_1  
     e(  2 -  2) =    -24.56589  eV     1   --> A_1  D_1  S_1  
     e(  3 -  3) =    -24.56533  eV     1   --> B_1  D_3  S_3  
     e(  4 -  4) =    -24.55690  eV     1   --> B_2  D_4  S_4  
     e(  5 -  5) =    -19.16263  eV     1   --> A_1  D_1  S_1  
     e(  6 -  6) =     -5.84143  eV     1   --> A_1  D_1  S_1  
     e(  7 -  7) =     -4.89929  eV     1   --> B_1  D_3  S_3  
     e(  8 -  8) =     -4.73251  eV     1   --> A_1  D_1  S_1  
     e(  9 -  9) =     -2.69073  eV     1   --> B_2  D_4  S_4  
     e( 10 - 10) =     -2.59678  eV     1   --> B_1  D_3  S_3  
     e( 11 - 11) =     -2.40975  eV     1   --> A_1  D_1  S_1  
     e( 12 - 12) =      8.06628  eV     1   --> A_1  D_1  S_1  
     e( 13 - 13) =      8.59356  eV     1   --> B_2  D_4  S_4  
     e( 14 - 14) =      8.63176  eV     1   --> B_1  D_3  S_3  
     e( 15 - 15) =      9.11026  eV     1   --> A_1  D_1  S_1  
     e( 16 - 16) =      9.53883  eV     1   --> A_2  D_2  S_2  
     e( 17 - 17) =     10.10631  eV     1   --> B_1  D_3  S_3  
     e( 18 - 18) =     10.18265  eV     1   --> A_1  D_1  S_1  
     e( 19 - 19) =     10.81086  eV     1   --> B_1  D_3  S_3  
     e( 20 - 20) =     10.84217  eV     1   --> B_2  D_4  S_4  
     e( 21 - 21) =     14.08418  eV     1   --> B_2  D_4  S_4  
     e( 22 - 22) =     14.24227  eV     1   --> A_2  D_2  S_2  
     e( 23 - 23) =     14.31165  eV     1   --> A_1  D_1  S_1  
     e( 24 - 24) =     15.45006  eV     1   --> B_1  D_3  S_3  
     e( 25 - 25) =     15.54852  eV     1   --> A_1  D_1  S_1  

 **************************************************************************

 **************************************************************************

                    xk=(   0.15000,   0.15000,   0.00000  )

     Band symmetry, C_2v (mm2)  point group:

     e(  1 -  1) =    -50.68109  eV     1   --> A_1  D_1  S_1  
     e(  2 -  2) =    -24.56391  eV     1   --> A_1  D_1  S_1  
     e(  3 -  3) =    -24.56345  eV     1   --> B_1  D_3  S_3  
     e(  4 -  4) =    -24.55708  eV     1   --> B_2  D_4  S_4  
     e(  5 -  5) =    -19.16934  eV     1   --> A_1  D_1  S_1  
     e(  6 -  6) =     -5.82866  eV     1   --> A_1  D_1  S_1  
     e(  7 -  7) =     -4.86383  eV     1   --> B_1  D_3  S_3  
     e(  8 -  8) =     -4.74155  eV     1   --> A_1  D_1  S_1  
     e(  9 -  9) =     -2.70246  eV     1   --> B_2  D_4  S_4  
     e( 10 - 10) =     -2.62900  eV     1   --> B_1  D_3  S_3  
     e( 11 - 11) =     -2.46927  eV     1   --> A_1  D_1  S_1  
     e( 12 - 12) =      8.19730  eV     1   --> A_1  D_1  S_1  
     e( 13 - 13) =      8.61397  eV     1   --> B_2  D_4  S_4  
     e( 14 - 14) =      8.65877  eV     1   --> B_1  D_3  S_3  
     e( 15 - 15) =      9.31351  eV     1   --> A_1  D_1  S_1  
     e( 16 - 16) =      9.65867  eV     1   --> A_2  D_2  S_2  
     e( 17 - 17) =     10.09796  eV     1   --> B_1  D_3  S_3  
     e( 18 - 18) =     10.38289  eV     1   --> A_1  D_1  S_1  
     e( 19 - 19) =     10.88173  eV     1   --> B_1  D_3  S_3  
     e( 20 - 20) =     10.94203  eV     1   --> B_2  D_4  S_4  
     e( 21 - 21) =     13.97152  eV     1   --> B_2  D_4  S_4  
     e( 22 - 22) =     14.10381  eV     1   --> A_2  D_2  S_2  
     e( 23 - 23) =     14.18387  eV     1   --> A_1  D_1  S_1  
     e( 24 - 24) =     15.34972  eV     1   --> B_1  D_3  S_3  
     e( 25 - 25) =     15.43318  eV     1   --> A_1  D_1  S_1  

 **************************************************************************

 **************************************************************************

                    xk=(   0.12500,   0.12500,   0.00000  )

     Band symmetry, C_2v (mm2)  point group:

     e(  1 -  1) =    -50.68115  eV     1   --> A_1  D_1  S_1  
     e(  2 -  2) =    -24.56210  eV     1   --> A_1  D_1  S_1  
     e(  3 -  3) =    -24.56174  eV     1   --> B_1  D_3  S_3  
     e(  4 -  4) =    -24.55723  eV     1   --> B_2  D_4  S_4  
     e(  5 -  5) =    -19.17541  eV     1   --> A_1  D_1  S_1  
     e(  6 -  6) =     -5.81280  eV     1   --> A_1  D_1  S_1  
     e(  7 -  7) =     -4.83108  eV     1   --> B_1  D_3  S_3  
     e(  8 -  8) =     -4.74770  eV     1   --> A_1  D_1  S_1  
     e(  9 -  9) =     -2.71283  eV     1   --> B_2  D_4  S_4  
     e( 10 - 10) =     -2.65893  eV     1   --> B_1  D_3  S_3  
     e( 11 - 11) =     -2.53289  eV     1   --> A_1  D_1  S_1  
     e( 12 - 12) =      8.32557  eV     1   --> A_1  D_1  S_1  
     e( 13 - 13) =      8.63402  eV     1   --> B_2  D_4  S_4  
     e( 14 - 14) =      8.67595  eV     1   --> B_1  D_3  S_3  
     e( 15 - 15) =      9.50767  eV     1   --> A_1  D_1  S_1  
     e( 16 - 16) =      9.77291  eV     1   --> A_2  D_2  S_2  
     e( 17 - 17) =     10.09194  eV     1   --> B_1  D_3  S_3  
     e( 18 - 18) =     10.59162  eV     1   --> A_1  D_1  S_1  
     e( 19 - 19) =     10.96464  eV     1   --> B_1  D_3  S_3  
     e( 20 - 20) =     11.03112  eV     1   --> B_2  D_4  S_4  
     e( 21 - 21) =     13.86923  eV     1   --> B_2  D_4  S_4  
     e( 22 - 22) =     13.97249  eV     1   --> A_2  D_2  S_2  
     e( 23 - 23) =     14.05616  eV     1   --> A_1  D_1  S_1  
     e( 24 - 24) =     15.23349  eV     1   --> B_1  D_3  S_3  
     e( 25 - 25) =     15.29818  eV     1   --> A_1  D_1  S_1  

 **************************************************************************

 **************************************************************************

                    xk=(   0.10000,   0.10000,   0.00000  )

     Band symmetry, C_2v (mm2)  point group:

     e(  1 -  1) =    -50.68121  eV     1   --> A_1  D_1  S_1  
     e(  2 -  2) =    -24.56055  eV     1   --> A_1  D_1  S_1  
     e(  3 -  3) =    -24.56031  eV     1   --> B_1  D_3  S_3  
     e(  4 -  4) =    -24.55738  eV     1   --> B_2  D_4  S_4  
     e(  5 -  5) =    -19.18067  eV     1   --> A_1  D_1  S_1  
     e(  6 -  6) =     -5.79631  eV     1   --> A_1  D_1  S_1  
     e(  7 -  7) =     -4.80219  eV     1   --> B_1  D_3  S_3  
     e(  8 -  8) =     -4.75049  eV     1   --> A_1  D_1  S_1  
     e(  9 -  9) =     -2.72161  eV     1   --> B_2  D_4  S_4  
     e( 10 - 10) =     -2.68547  eV     1   --> B_1  D_3  S_3  
     e( 11 - 11) =     -2.59583  eV     1   --> A_1  D_1  S_1  
     e( 12 - 12) =      8.44424  eV     1   --> A_1  D_1  S_1  
     e( 13 - 13) =      8.65248  eV     1   --> B_2  D_4  S_4  
     e( 14 - 14) =      8.68538  eV     1   --> B_1  D_3  S_3  
     e( 15 - 15) =      9.68856  eV     1   --> A_1  D_1  S_1  
     e( 16 - 16) =      9.87678  eV     1   --> A_2  D_2  S_2  
     e( 17 - 17) =     10.08883  eV     1   --> B_1  D_3  S_3  
     e( 18 - 18) =     10.79449  eV     1   --> A_1  D_1  S_1  
     e( 19 - 19) =     11.05047  eV     1   --> B_1  D_3  S_3  
     e( 20 - 20) =     11.10733  eV     1   --> B_2  D_4  S_4  
     e( 21 - 21) =     13.78012  eV     1   --> B_2  D_4  S_4  
     e( 22 - 22) =     13.85308  eV     1   --> A_2  D_2  S_2  
     e( 23 - 23) =     13.92939  eV     1   --> A_1  D_1  S_1  
     e( 24 - 24) =     15.11431  eV     1   --> B_1  D_3  S_3  
     e( 25 - 25) =     15.15872  eV     1   --> A_1  D_1  S_1  

 **************************************************************************

 **************************************************************************

                    xk=(   0.07500,   0.07500,   0.00000  )

     Band symmetry, C_2v (mm2)  point group:

     e(  1 -  1) =    -50.68125  eV     1   --> A_1  D_1  S_1  
     e(  2 -  2) =    -24.55930  eV     1   --> A_1  D_1  S_1  
     e(  3 -  3) =    -24.55916  eV     1   --> B_1  D_3  S_3  
     e(  4 -  4) =    -24.55747  eV     1   --> B_2  D_4  S_4  
     e(  5 -  5) =    -19.18496  eV     1   --> A_1  D_1  S_1  
     e(  6 -  6) =     -5.78120  eV     1   --> A_1  D_1  S_1  
     e(  7 -  7) =     -4.77828  eV     1   --> B_1  D_3  S_3  
     e(  8 -  8) =     -4.75032  eV     1   --> A_1  D_1  S_1  
     e(  9 -  9) =     -2.72862  eV     1   --> B_2  D_4  S_4  
     e( 10 - 10) =     -2.70752  eV     1   --> B_1  D_3  S_3  
     e( 11 - 11) =     -2.65272  eV     1   --> A_1  D_1  S_1  
     e( 12 - 12) =      8.54609  eV     1   --> A_1  D_1  S_1  
     e( 13 - 13) =      8.66821  eV     1   --> B_2  D_4  S_4  
     e( 14 - 14) =      8.68951  eV     1   --> B_1  D_3  S_3  
     e( 15 - 15) =      9.84891  eV     1   --> A_1  D_1  S_1  
     e( 16 - 16) =      9.96554  eV     1   --> A_2  D_2  S_2  
     e( 17 - 17) =     10.08860  eV     1   --> B_1  D_3  S_3  
     e( 18 - 18) =     10.97671  eV     1   --> A_1  D_1  S_1  
     e( 19 - 19) =     11.13007  eV     1   --> B_1  D_3  S_3  
     e( 20 - 20) =     11.16896  eV     1   --> B_2  D_4  S_4  
     e( 21 - 21) =     13.70706  eV     1   --> B_2  D_4  S_4  
     e( 22 - 22) =     13.75161  eV     1   --> A_2  D_2  S_2  
     e( 23 - 23) =     13.80906  eV     1   --> A_1  D_1  S_1  
     e( 24 - 24) =     15.00679  eV     1   --> B_1  D_3  S_3  
     e( 25 - 25) =     15.03254  eV     1   --> A_1  D_1  S_1  

 **************************************************************************

 **************************************************************************

                    xk=(   0.05000,   0.05000,   0.00000  )

     Band symmetry, C_2v (mm2)  point group:

     e(  1 -  1) =    -50.68128  eV     1   --> A_1  D_1  S_1  
     e(  2 -  3) =    -24.55837  eV     2   --> A_1  D_1  S_1  
     e(  2 -  3) =    -24.55837  eV     2   --> B_1  D_3  S_3  
     e(  4 -  4) =    -24.55755  eV     1   --> B_2  D_4  S_4  
     e(  5 -  5) =    -19.18812  eV     1   --> A_1  D_1  S_1  
     e(  6 -  6) =     -5.76925  eV     1   --> A_1  D_1  S_1  
     e(  7 -  7) =     -4.76037  eV     1   --> B_1  D_3  S_3  
     e(  8 -  8) =     -4.74842  eV     1   --> A_1  D_1  S_1  
     e(  9 -  9) =     -2.73374  eV     1   --> B_2  D_4  S_4  
     e( 10 - 10) =     -2.72410  eV     1   --> B_1  D_3  S_3  
     e( 11 - 11) =     -2.69823  eV     1   --> A_1  D_1  S_1  
     e( 12 - 12) =      8.62431  eV     1   --> A_1  D_1  S_1  
     e( 13 - 13) =      8.68022  eV     1   --> B_2  D_4  S_4  
     e( 14 - 14) =      8.69061  eV     1   --> B_1  D_3  S_3  
     e( 15 - 15) =      9.97765  eV     1   --> A_1  D_1  S_1  
     e( 16 - 16) =     10.03381  eV     1   --> A_2  D_2  S_2  
     e( 17 - 17) =     10.08981  eV     1   --> B_1  D_3  S_3  
     e( 18 - 18) =     11.12279  eV     1   --> A_1  D_1  S_1  
     e( 19 - 19) =     11.19469  eV     1   --> B_1  D_3  S_3  
     e( 20 - 20) =     11.21436  eV     1   --> B_2  D_4  S_4  
     e( 21 - 21) =     13.65270  eV     1   --> B_2  D_4  S_4  
     e( 22 - 22) =     13.67373  eV     1   --> A_2  D_2  S_2  
     e( 23 - 23) =     13.70547  eV     1   --> A_1  D_1  S_1  
     e( 24 - 24) =     14.92244  eV     1   --> B_1  D_3  S_3  
     e( 25 - 25) =     14.93395  eV     1   --> A_1  D_1  S_1  

 **************************************************************************

 **************************************************************************

                    xk=(   0.02500,   0.02500,   0.00000  )

     Band symmetry, C_2v (mm2)  point group:

     e(  1 -  1) =    -50.68130  eV     1   --> A_1  D_1  S_1  
     e(  2 -  3) =    -24.55782  eV     2   --> A_1  D_1  S_1  
     e(  2 -  3) =    -24.55782  eV     2   --> B_1  D_3  S_3  
     e(  4 -  4) =    -24.55761  eV     1   --> B_2  D_4  S_4  
     e(  5 -  5) =    -19.19006  eV     1   --> A_1  D_1  S_1  
     e(  6 -  6) =     -5.76161  eV     1   --> A_1  D_1  S_1  
     e(  7 -  7) =     -4.74926  eV     1   --> B_1  D_3  S_3  
     e(  8 -  8) =     -4.74636  eV     1   --> A_1  D_1  S_1  
     e(  9 -  9) =     -2.73685  eV     1   --> B_2  D_4  S_4  
     e( 10 - 10) =     -2.73439  eV     1   --> B_1  D_3  S_3  
     e( 11 - 11) =     -2.72768  eV     1   --> A_1  D_1  S_1  
     e( 12 - 12) =      8.67355  eV     1   --> A_1  D_1  S_1  
     e( 13 - 13) =      8.68778  eV     1   --> B_2  D_4  S_4  
     e( 14 - 14) =      8.69050  eV     1   --> B_1  D_3  S_3  
     e( 15 - 15) =     10.06227  eV     1   --> A_1  D_1  S_1  
     e( 16 - 16) =     10.07704  eV     1   --> A_2  D_2  S_2  
     e( 17 - 17) =     10.09125  eV     1   --> B_1  D_3  S_3  
     e( 18 - 18) =     11.21827  eV     1   --> A_1  D_1  S_1  
     e( 19 - 19) =     11.23686  eV     1   --> B_1  D_3  S_3  
     e( 20 - 20) =     11.24218  eV     1   --> B_2  D_4  S_4  
     e( 21 - 21) =     13.61907  eV     1   --> B_2  D_4  S_4  
     e( 22 - 22) =     13.62455  eV     1   --> A_2  D_2  S_2  
     e( 23 - 23) =     13.63365  eV     1   --> A_1  D_1  S_1  
     e( 24 - 24) =     14.86879  eV     1   --> B_1  D_3  S_3  
     e( 25 - 25) =     14.87164  eV     1   --> A_1  D_1  S_1  

 **************************************************************************

 **************************************************************************

                    xk=(   0.00000,   0.00000,   0.00000  )

     point group O_h (m-3m) 
     there are 10 classes
     the character table:

       E     8C3   3C2   6C4   6C2'  i     8S6   3s_h  6S4   6s_d 
A_1g   1.00  1.00  1.00  1.00  1.00  1.00  1.00  1.00  1.00  1.00
A_2g   1.00  1.00  1.00 -1.00 -1.00  1.00  1.00  1.00 -1.00 -1.00
E_g    2.00 -1.00  2.00  0.00  0.00  2.00 -1.00  2.00  0.00  0.00
T_1g   3.00  0.00 -1.00  1.00 -1.00  3.00  0.00 -1.00  1.00 -1.00
T_2g   3.00  0.00 -1.00 -1.00  1.00  3.00  0.00 -1.00 -1.00  1.00
A_1u   1.00  1.00  1.00  1.00  1.00 -1.00 -1.00 -1.00 -1.00 -1.00
A_2u   1.00  1.00  1.00 -1.00 -1.00 -1.00 -1.00 -1.00  1.00  1.00
E_u    2.00 -1.00  2.00  0.00  0.00 -2.00  1.00 -2.00  0.00  0.00
T_1u   3.00  0.00 -1.00  1.00 -1.00 -3.00  0.00  1.00 -1.00  1.00
T_2u   3.00  0.00 -1.00 -1.00  1.00 -3.00  0.00  1.00  1.00 -1.00

     the symmetry operations in each class and the name of the first element:

     E        1
                                                                 
     8C3     17   19   20   18   24   21   22   23
                                                                 
     3C2      2    4    3
                                                                 
     6C4      7    8   15   16   12   11
                                                                 
     6C2'     5    6   14   13   10    9
                                                                 
     i       25
                                                                 
     8S6     41   43   44   42   48   45   46   47
                                                                 
     3s_h    26   28   27
                                                                 
     6S4     31   32   39   40   36   35
                                                                 
     6s_d    29   30   38   37   34   33
                                                                 

     Band symmetry, O_h (m-3m)  point group:

     e(  1 -  1) =    -50.68130  eV     1   --> A_1g G_1   G_1+
     e(  2 -  4) =    -24.55760  eV     3   --> T_1u G_15  G_4-
     e(  5 -  5) =    -19.19071  eV     1   --> A_1g G_1   G_1+
     e(  6 -  6) =     -5.75899  eV     1   --> A_1g G_1   G_1+
     e(  7 -  8) =     -4.74549  eV     2   --> E_g  G_12  G_3+
     e(  9 - 11) =     -2.73789  eV     3   --> T_1u G_15  G_4-
     e( 12 - 14) =      8.69035  eV     3   --> T_1u G_15  G_4-
     e( 15 - 17) =     10.09191  eV     3   --> T_2u G_25  G_5-
     e( 18 - 20) =     11.25155  eV     3   --> T_1u G_15  G_4-
     e( 21 - 23) =     13.60774  eV     3   --> T_2g G_25' G_5+
     e( 24 - 25) =     14.85046  eV     2   --> E_g  G_12  G_3+

 **************************************************************************

     BANDS        :     17.62s CPU     20.67s WALL


   This run was terminated on:  15:43:45  22Sep2023            

=------------------------------------------------------------------------------=
   JOB DONE.
=------------------------------------------------------------------------------=
