
     Program PWSCF v.7.1 starts on 22Sep2023 at 15:43: 2 

     This program is part of the open-source Quantum ESPRESSO suite
     for quantum simulation of materials; please cite
         "P. Giannozzi et al., J. Phys.:Condens. Matter 21 395502 (2009);
         "P. Giannozzi et al., J. Phys.:Condens. Matter 29 465901 (2017);
         "P. Giannozzi et al., J. Chem. Phys. 152 154105 (2020);
          URL http://www.quantum-espresso.org", 
     in publications or presentations arising from this work. More details at
     http://www.quantum-espresso.org/quote

     Parallel version (MPI & OpenMP), running on      10 processor cores
     Number of MPI processes:                10
     Threads/MPI process:                     1

     MPI processes distributed on     1 nodes
     11675 MiB available memory on the printing compute node when the environment starts

     Waiting for input...
     Reading input from standard input

     Current dimensions of program PWSCF are:
     Max number of different atomic species (ntypx) = 10
     Max number of k-points (npk) =  40000
     Max angular momentum in pseudopotentials (lmaxx) =  4

     Atomic positions and unit cell read from directory:
     ./work/pwscf.save/

     file O.pbe-n-kjpaw_psl.1.0.0.UPF: wavefunction(s)  2S 2P renormalized
     file La.pbe-spfn-kjpaw_psl.1.0.0.UPF: wavefunction(s)  5S 5D 4F renormalized
     file V.pbe-spn-kjpaw_psl.1.0.0.UPF: wavefunction(s)  3P 3D renormalized
     Message from routine setup:
     using ibrav=0 with symmetry is DISCOURAGED, use correct ibrav instead

     R & G space division:  proc/nbgrp/npool/nimage =      10
     Subspace diagonalization in iterative solution of the eigenvalue problem:
     a serial algorithm will be used


     Parallelization info
     --------------------
     sticks:   dense  smooth     PW     G-vecs:    dense   smooth      PW
     Min         284     132     38                11380     3636     572
     Max         286     133     39                11381     3639     575
     Sum        2845    1321    385               113801    36377    5743

     Using Slab Decomposition



     bravais-lattice index     =            0
     lattice parameter (alat)  =       7.4646  a.u.
     unit-cell volume          =     415.9211 (a.u.)^3
     number of atoms/cell      =            5
     number of atomic types    =            3
     number of electrons       =        42.00
     number of Kohn-Sham states=           25
     kinetic-energy cutoff     =      75.0000  Ry
     charge density cutoff     =     641.0000  Ry
     Exchange-correlation= SLA  PW   PBX  PBC
                           (   1   4   3   4   0   0   0)

     celldm(1)=   7.464550  celldm(2)=   0.000000  celldm(3)=   0.000000
     celldm(4)=   0.000000  celldm(5)=   0.000000  celldm(6)=   0.000000

     crystal axes: (cart. coord. in units of alat)
               a(1) = (   1.000000   0.000000   0.000000 )  
               a(2) = (   0.000000   1.000000   0.000000 )  
               a(3) = (   0.000000   0.000000   1.000000 )  

     reciprocal axes: (cart. coord. in units 2 pi/alat)
               b(1) = (  1.000000  0.000000  0.000000 )  
               b(2) = (  0.000000  1.000000  0.000000 )  
               b(3) = (  0.000000  0.000000  1.000000 )  


     PseudoPot. # 1 for O  read from file:
     ./../../pseudo/psl100_PBE/O.pbe-n-kjpaw_psl.1.0.0.UPF
     MD5 check sum: eca5c60c16f5a4fc86cb100254d05a93
     Pseudo is Projector augmented-wave + core cor, Zval =  6.0
     Generated using 'atomic' code by A. Dal Corso  v.7.2
     Shape of augmentation charge: PSQ
     Using radial grid of 1095 points,  4 beta functions with: 
                l(1) =   0
                l(2) =   0
                l(3) =   1
                l(4) =   1
     Q(r) pseudized with 0 coefficients 


     PseudoPot. # 2 for La read from file:
     ./../../pseudo/psl100_PBE/La.pbe-spfn-kjpaw_psl.1.0.0.UPF
     MD5 check sum: 1e97e2c47a535f07893494b6266bdf8e
     Pseudo is Projector augmented-wave + core cor, Zval = 11.0
     Generated using 'atomic' code by A. Dal Corso  v.7.2
     Shape of augmentation charge: PSQ
     Using radial grid of 1253 points,  8 beta functions with: 
                l(1) =   0
                l(2) =   0
                l(3) =   1
                l(4) =   1
                l(5) =   2
                l(6) =   2
                l(7) =   3
                l(8) =   3
     Q(r) pseudized with 0 coefficients 


     PseudoPot. # 3 for V  read from file:
     ./../../pseudo/psl100_PBE/V.pbe-spn-kjpaw_psl.1.0.0.UPF
     MD5 check sum: cba1cdff171fe0d1b5c7b7b536adf2ed
     Pseudo is Projector augmented-wave + core cor, Zval = 13.0
     Generated using 'atomic' code by A. Dal Corso  v.7.2
     Shape of augmentation charge: PSQ
     Using radial grid of 1181 points,  6 beta functions with: 
                l(1) =   0
                l(2) =   0
                l(3) =   1
                l(4) =   1
                l(5) =   2
                l(6) =   2
     Q(r) pseudized with 0 coefficients 


     atomic species   valence    mass     pseudopotential
        O              6.00    15.99900     O ( 1.00)
        La            11.00   138.90500     La( 1.00)
        V             13.00    50.94150     V ( 1.00)

     48 Sym. Ops., with inversion, found


                                    s                        frac. trans.

      isym =  1     identity                                     

 cryst.   s( 1) = (     1          0          0      )
                  (     0          1          0      )
                  (     0          0          1      )

 cart.    s( 1) = (  1.0000000  0.0000000  0.0000000 )
                  (  0.0000000  1.0000000  0.0000000 )
                  (  0.0000000  0.0000000  1.0000000 )


      isym =  2     180 deg rotation - cart. axis [0,0,1]        

 cryst.   s( 2) = (    -1          0          0      )
                  (     0         -1          0      )
                  (     0          0          1      )

 cart.    s( 2) = ( -1.0000000  0.0000000  0.0000000 )
                  (  0.0000000 -1.0000000  0.0000000 )
                  (  0.0000000  0.0000000  1.0000000 )


      isym =  3     180 deg rotation - cart. axis [0,1,0]        

 cryst.   s( 3) = (    -1          0          0      )
                  (     0          1          0      )
                  (     0          0         -1      )

 cart.    s( 3) = ( -1.0000000  0.0000000  0.0000000 )
                  (  0.0000000  1.0000000  0.0000000 )
                  (  0.0000000  0.0000000 -1.0000000 )


      isym =  4     180 deg rotation - cart. axis [1,0,0]        

 cryst.   s( 4) = (     1          0          0      )
                  (     0         -1          0      )
                  (     0          0         -1      )

 cart.    s( 4) = (  1.0000000  0.0000000  0.0000000 )
                  (  0.0000000 -1.0000000  0.0000000 )
                  (  0.0000000  0.0000000 -1.0000000 )


      isym =  5     180 deg rotation - cart. axis [1,1,0]        

 cryst.   s( 5) = (     0          1          0      )
                  (     1          0          0      )
                  (     0          0         -1      )

 cart.    s( 5) = (  0.0000000  1.0000000  0.0000000 )
                  (  1.0000000  0.0000000  0.0000000 )
                  (  0.0000000  0.0000000 -1.0000000 )


      isym =  6     180 deg rotation - cart. axis [1,-1,0]       

 cryst.   s( 6) = (     0         -1          0      )
                  (    -1          0          0      )
                  (     0          0         -1      )

 cart.    s( 6) = (  0.0000000 -1.0000000  0.0000000 )
                  ( -1.0000000  0.0000000  0.0000000 )
                  (  0.0000000  0.0000000 -1.0000000 )


      isym =  7      90 deg rotation - cart. axis [0,0,-1]       

 cryst.   s( 7) = (     0         -1          0      )
                  (     1          0          0      )
                  (     0          0          1      )

 cart.    s( 7) = (  0.0000000  1.0000000  0.0000000 )
                  ( -1.0000000  0.0000000  0.0000000 )
                  (  0.0000000  0.0000000  1.0000000 )


      isym =  8      90 deg rotation - cart. axis [0,0,1]        

 cryst.   s( 8) = (     0          1          0      )
                  (    -1          0          0      )
                  (     0          0          1      )

 cart.    s( 8) = (  0.0000000 -1.0000000  0.0000000 )
                  (  1.0000000  0.0000000  0.0000000 )
                  (  0.0000000  0.0000000  1.0000000 )


      isym =  9     180 deg rotation - cart. axis [1,0,1]        

 cryst.   s( 9) = (     0          0          1      )
                  (     0         -1          0      )
                  (     1          0          0      )

 cart.    s( 9) = (  0.0000000  0.0000000  1.0000000 )
                  (  0.0000000 -1.0000000  0.0000000 )
                  (  1.0000000  0.0000000  0.0000000 )


      isym = 10     180 deg rotation - cart. axis [-1,0,1]       

 cryst.   s(10) = (     0          0         -1      )
                  (     0         -1          0      )
                  (    -1          0          0      )

 cart.    s(10) = (  0.0000000  0.0000000 -1.0000000 )
                  (  0.0000000 -1.0000000  0.0000000 )
                  ( -1.0000000  0.0000000  0.0000000 )


      isym = 11      90 deg rotation - cart. axis [0,1,0]        

 cryst.   s(11) = (     0          0         -1      )
                  (     0          1          0      )
                  (     1          0          0      )

 cart.    s(11) = (  0.0000000  0.0000000  1.0000000 )
                  (  0.0000000  1.0000000  0.0000000 )
                  ( -1.0000000  0.0000000  0.0000000 )


      isym = 12      90 deg rotation - cart. axis [0,-1,0]       

 cryst.   s(12) = (     0          0          1      )
                  (     0          1          0      )
                  (    -1          0          0      )

 cart.    s(12) = (  0.0000000  0.0000000 -1.0000000 )
                  (  0.0000000  1.0000000  0.0000000 )
                  (  1.0000000  0.0000000  0.0000000 )


      isym = 13     180 deg rotation - cart. axis [0,1,1]        

 cryst.   s(13) = (    -1          0          0      )
                  (     0          0          1      )
                  (     0          1          0      )

 cart.    s(13) = ( -1.0000000  0.0000000  0.0000000 )
                  (  0.0000000  0.0000000  1.0000000 )
                  (  0.0000000  1.0000000  0.0000000 )


      isym = 14     180 deg rotation - cart. axis [0,1,-1]       

 cryst.   s(14) = (    -1          0          0      )
                  (     0          0         -1      )
                  (     0         -1          0      )

 cart.    s(14) = ( -1.0000000  0.0000000  0.0000000 )
                  (  0.0000000  0.0000000 -1.0000000 )
                  (  0.0000000 -1.0000000  0.0000000 )


      isym = 15      90 deg rotation - cart. axis [-1,0,0]       

 cryst.   s(15) = (     1          0          0      )
                  (     0          0         -1      )
                  (     0          1          0      )

 cart.    s(15) = (  1.0000000  0.0000000  0.0000000 )
                  (  0.0000000  0.0000000  1.0000000 )
                  (  0.0000000 -1.0000000  0.0000000 )


      isym = 16      90 deg rotation - cart. axis [1,0,0]        

 cryst.   s(16) = (     1          0          0      )
                  (     0          0          1      )
                  (     0         -1          0      )

 cart.    s(16) = (  1.0000000  0.0000000  0.0000000 )
                  (  0.0000000  0.0000000 -1.0000000 )
                  (  0.0000000  1.0000000  0.0000000 )


      isym = 17     120 deg rotation - cart. axis [-1,-1,-1]     

 cryst.   s(17) = (     0          0          1      )
                  (     1          0          0      )
                  (     0          1          0      )

 cart.    s(17) = (  0.0000000  1.0000000  0.0000000 )
                  (  0.0000000  0.0000000  1.0000000 )
                  (  1.0000000  0.0000000  0.0000000 )


      isym = 18     120 deg rotation - cart. axis [-1,1,1]       

 cryst.   s(18) = (     0          0         -1      )
                  (    -1          0          0      )
                  (     0          1          0      )

 cart.    s(18) = (  0.0000000 -1.0000000  0.0000000 )
                  (  0.0000000  0.0000000  1.0000000 )
                  ( -1.0000000  0.0000000  0.0000000 )


      isym = 19     120 deg rotation - cart. axis [1,1,-1]       

 cryst.   s(19) = (     0          0         -1      )
                  (     1          0          0      )
                  (     0         -1          0      )

 cart.    s(19) = (  0.0000000  1.0000000  0.0000000 )
                  (  0.0000000  0.0000000 -1.0000000 )
                  ( -1.0000000  0.0000000  0.0000000 )


      isym = 20     120 deg rotation - cart. axis [1,-1,1]       

 cryst.   s(20) = (     0          0          1      )
                  (    -1          0          0      )
                  (     0         -1          0      )

 cart.    s(20) = (  0.0000000 -1.0000000  0.0000000 )
                  (  0.0000000  0.0000000 -1.0000000 )
                  (  1.0000000  0.0000000  0.0000000 )


      isym = 21     120 deg rotation - cart. axis [1,1,1]        

 cryst.   s(21) = (     0          1          0      )
                  (     0          0          1      )
                  (     1          0          0      )

 cart.    s(21) = (  0.0000000  0.0000000  1.0000000 )
                  (  1.0000000  0.0000000  0.0000000 )
                  (  0.0000000  1.0000000  0.0000000 )


      isym = 22     120 deg rotation - cart. axis [-1,1,-1]      

 cryst.   s(22) = (     0         -1          0      )
                  (     0          0         -1      )
                  (     1          0          0      )

 cart.    s(22) = (  0.0000000  0.0000000  1.0000000 )
                  ( -1.0000000  0.0000000  0.0000000 )
                  (  0.0000000 -1.0000000  0.0000000 )


      isym = 23     120 deg rotation - cart. axis [1,-1,-1]      

 cryst.   s(23) = (     0         -1          0      )
                  (     0          0          1      )
                  (    -1          0          0      )

 cart.    s(23) = (  0.0000000  0.0000000 -1.0000000 )
                  ( -1.0000000  0.0000000  0.0000000 )
                  (  0.0000000  1.0000000  0.0000000 )


      isym = 24     120 deg rotation - cart. axis [-1,-1,1]      

 cryst.   s(24) = (     0          1          0      )
                  (     0          0         -1      )
                  (    -1          0          0      )

 cart.    s(24) = (  0.0000000  0.0000000 -1.0000000 )
                  (  1.0000000  0.0000000  0.0000000 )
                  (  0.0000000 -1.0000000  0.0000000 )


      isym = 25     inversion                                    

 cryst.   s(25) = (    -1          0          0      )
                  (     0         -1          0      )
                  (     0          0         -1      )

 cart.    s(25) = ( -1.0000000  0.0000000  0.0000000 )
                  (  0.0000000 -1.0000000  0.0000000 )
                  (  0.0000000  0.0000000 -1.0000000 )


      isym = 26     inv. 180 deg rotation - cart. axis [0,0,1]   

 cryst.   s(26) = (     1          0          0      )
                  (     0          1          0      )
                  (     0          0         -1      )

 cart.    s(26) = (  1.0000000  0.0000000  0.0000000 )
                  (  0.0000000  1.0000000  0.0000000 )
                  (  0.0000000  0.0000000 -1.0000000 )


      isym = 27     inv. 180 deg rotation - cart. axis [0,1,0]   

 cryst.   s(27) = (     1          0          0      )
                  (     0         -1          0      )
                  (     0          0          1      )

 cart.    s(27) = (  1.0000000  0.0000000  0.0000000 )
                  (  0.0000000 -1.0000000  0.0000000 )
                  (  0.0000000  0.0000000  1.0000000 )


      isym = 28     inv. 180 deg rotation - cart. axis [1,0,0]   

 cryst.   s(28) = (    -1          0          0      )
                  (     0          1          0      )
                  (     0          0          1      )

 cart.    s(28) = ( -1.0000000  0.0000000  0.0000000 )
                  (  0.0000000  1.0000000  0.0000000 )
                  (  0.0000000  0.0000000  1.0000000 )


      isym = 29     inv. 180 deg rotation - cart. axis [1,1,0]   

 cryst.   s(29) = (     0         -1          0      )
                  (    -1          0          0      )
                  (     0          0          1      )

 cart.    s(29) = (  0.0000000 -1.0000000  0.0000000 )
                  ( -1.0000000  0.0000000  0.0000000 )
                  (  0.0000000  0.0000000  1.0000000 )


      isym = 30     inv. 180 deg rotation - cart. axis [1,-1,0]  

 cryst.   s(30) = (     0          1          0      )
                  (     1          0          0      )
                  (     0          0          1      )

 cart.    s(30) = (  0.0000000  1.0000000  0.0000000 )
                  (  1.0000000  0.0000000  0.0000000 )
                  (  0.0000000  0.0000000  1.0000000 )


      isym = 31     inv.  90 deg rotation - cart. axis [0,0,-1]  

 cryst.   s(31) = (     0          1          0      )
                  (    -1          0          0      )
                  (     0          0         -1      )

 cart.    s(31) = (  0.0000000 -1.0000000  0.0000000 )
                  (  1.0000000  0.0000000  0.0000000 )
                  (  0.0000000  0.0000000 -1.0000000 )


      isym = 32     inv.  90 deg rotation - cart. axis [0,0,1]   

 cryst.   s(32) = (     0         -1          0      )
                  (     1          0          0      )
                  (     0          0         -1      )

 cart.    s(32) = (  0.0000000  1.0000000  0.0000000 )
                  ( -1.0000000  0.0000000  0.0000000 )
                  (  0.0000000  0.0000000 -1.0000000 )


      isym = 33     inv. 180 deg rotation - cart. axis [1,0,1]   

 cryst.   s(33) = (     0          0         -1      )
                  (     0          1          0      )
                  (    -1          0          0      )

 cart.    s(33) = (  0.0000000  0.0000000 -1.0000000 )
                  (  0.0000000  1.0000000  0.0000000 )
                  ( -1.0000000  0.0000000  0.0000000 )


      isym = 34     inv. 180 deg rotation - cart. axis [-1,0,1]  

 cryst.   s(34) = (     0          0          1      )
                  (     0          1          0      )
                  (     1          0          0      )

 cart.    s(34) = (  0.0000000  0.0000000  1.0000000 )
                  (  0.0000000  1.0000000  0.0000000 )
                  (  1.0000000  0.0000000  0.0000000 )


      isym = 35     inv.  90 deg rotation - cart. axis [0,1,0]   

 cryst.   s(35) = (     0          0          1      )
                  (     0         -1          0      )
                  (    -1          0          0      )

 cart.    s(35) = (  0.0000000  0.0000000 -1.0000000 )
                  (  0.0000000 -1.0000000  0.0000000 )
                  (  1.0000000  0.0000000  0.0000000 )


      isym = 36     inv.  90 deg rotation - cart. axis [0,-1,0]  

 cryst.   s(36) = (     0          0         -1      )
                  (     0         -1          0      )
                  (     1          0          0      )

 cart.    s(36) = (  0.0000000  0.0000000  1.0000000 )
                  (  0.0000000 -1.0000000  0.0000000 )
                  ( -1.0000000  0.0000000  0.0000000 )


      isym = 37     inv. 180 deg rotation - cart. axis [0,1,1]   

 cryst.   s(37) = (     1          0          0      )
                  (     0          0         -1      )
                  (     0         -1          0      )

 cart.    s(37) = (  1.0000000  0.0000000  0.0000000 )
                  (  0.0000000  0.0000000 -1.0000000 )
                  (  0.0000000 -1.0000000  0.0000000 )


      isym = 38     inv. 180 deg rotation - cart. axis [0,1,-1]  

 cryst.   s(38) = (     1          0          0      )
                  (     0          0          1      )
                  (     0          1          0      )

 cart.    s(38) = (  1.0000000  0.0000000  0.0000000 )
                  (  0.0000000  0.0000000  1.0000000 )
                  (  0.0000000  1.0000000  0.0000000 )


      isym = 39     inv.  90 deg rotation - cart. axis [-1,0,0]  

 cryst.   s(39) = (    -1          0          0      )
                  (     0          0          1      )
                  (     0         -1          0      )

 cart.    s(39) = ( -1.0000000  0.0000000  0.0000000 )
                  (  0.0000000  0.0000000 -1.0000000 )
                  (  0.0000000  1.0000000  0.0000000 )


      isym = 40     inv.  90 deg rotation - cart. axis [1,0,0]   

 cryst.   s(40) = (    -1          0          0      )
                  (     0          0         -1      )
                  (     0          1          0      )

 cart.    s(40) = ( -1.0000000  0.0000000  0.0000000 )
                  (  0.0000000  0.0000000  1.0000000 )
                  (  0.0000000 -1.0000000  0.0000000 )


      isym = 41     inv. 120 deg rotation - cart. axis [-1,-1,-1]

 cryst.   s(41) = (     0          0         -1      )
                  (    -1          0          0      )
                  (     0         -1          0      )

 cart.    s(41) = (  0.0000000 -1.0000000  0.0000000 )
                  (  0.0000000  0.0000000 -1.0000000 )
                  ( -1.0000000  0.0000000  0.0000000 )


      isym = 42     inv. 120 deg rotation - cart. axis [-1,1,1]  

 cryst.   s(42) = (     0          0          1      )
                  (     1          0          0      )
                  (     0         -1          0      )

 cart.    s(42) = (  0.0000000  1.0000000  0.0000000 )
                  (  0.0000000  0.0000000 -1.0000000 )
                  (  1.0000000  0.0000000  0.0000000 )


      isym = 43     inv. 120 deg rotation - cart. axis [1,1,-1]  

 cryst.   s(43) = (     0          0          1      )
                  (    -1          0          0      )
                  (     0          1          0      )

 cart.    s(43) = (  0.0000000 -1.0000000  0.0000000 )
                  (  0.0000000  0.0000000  1.0000000 )
                  (  1.0000000  0.0000000  0.0000000 )


      isym = 44     inv. 120 deg rotation - cart. axis [1,-1,1]  

 cryst.   s(44) = (     0          0         -1      )
                  (     1          0          0      )
                  (     0          1          0      )

 cart.    s(44) = (  0.0000000  1.0000000  0.0000000 )
                  (  0.0000000  0.0000000  1.0000000 )
                  ( -1.0000000  0.0000000  0.0000000 )


      isym = 45     inv. 120 deg rotation - cart. axis [1,1,1]   

 cryst.   s(45) = (     0         -1          0      )
                  (     0          0         -1      )
                  (    -1          0          0      )

 cart.    s(45) = (  0.0000000  0.0000000 -1.0000000 )
                  ( -1.0000000  0.0000000  0.0000000 )
                  (  0.0000000 -1.0000000  0.0000000 )


      isym = 46     inv. 120 deg rotation - cart. axis [-1,1,-1] 

 cryst.   s(46) = (     0          1          0      )
                  (     0          0          1      )
                  (    -1          0          0      )

 cart.    s(46) = (  0.0000000  0.0000000 -1.0000000 )
                  (  1.0000000  0.0000000  0.0000000 )
                  (  0.0000000  1.0000000  0.0000000 )


      isym = 47     inv. 120 deg rotation - cart. axis [1,-1,-1] 

 cryst.   s(47) = (     0          1          0      )
                  (     0          0         -1      )
                  (     1          0          0      )

 cart.    s(47) = (  0.0000000  0.0000000  1.0000000 )
                  (  1.0000000  0.0000000  0.0000000 )
                  (  0.0000000 -1.0000000  0.0000000 )


      isym = 48     inv. 120 deg rotation - cart. axis [-1,-1,1] 

 cryst.   s(48) = (     0         -1          0      )
                  (     0          0          1      )
                  (     1          0          0      )

 cart.    s(48) = (  0.0000000  0.0000000  1.0000000 )
                  ( -1.0000000  0.0000000  0.0000000 )
                  (  0.0000000  1.0000000  0.0000000 )


   Cartesian axes

     site n.     atom                  positions (alat units)
         1           La  tau(   1) = (   0.5000000   0.5000000   0.5000000  )
         2           V   tau(   2) = (   0.0000000   0.0000000   0.0000000  )
         3           O   tau(   3) = (   0.5000000   0.0000000   0.0000000  )
         4           O   tau(   4) = (   0.0000000   0.0000000   0.5000000  )
         5           O   tau(   5) = (   0.0000000   0.5000000   0.0000000  )

   Crystallographic axes

     site n.     atom                  positions (cryst. coord.)
         1           La  tau(   1) = (  0.5000000  0.5000000  0.5000000  )
         2           V   tau(   2) = (  0.0000000  0.0000000  0.0000000  )
         3           O   tau(   3) = (  0.5000000  0.0000000  0.0000000  )
         4           O   tau(   4) = (  0.0000000  0.0000000  0.5000000  )
         5           O   tau(   5) = (  0.0000000  0.5000000  0.0000000  )

     number of k points=    81  Methfessel-Paxton smearing, width (Ry)=  0.0100
                       cart. coord. in units 2pi/alat
        k(    1) = (   0.5000000   0.5000000   0.5000000), wk =   0.0246914
        k(    2) = (   0.4750000   0.4750000   0.4750000), wk =   0.0246914
        k(    3) = (   0.4500000   0.4500000   0.4500000), wk =   0.0246914
        k(    4) = (   0.4250000   0.4250000   0.4250000), wk =   0.0246914
        k(    5) = (   0.4000000   0.4000000   0.4000000), wk =   0.0246914
        k(    6) = (   0.3750000   0.3750000   0.3750000), wk =   0.0246914
        k(    7) = (   0.3500000   0.3500000   0.3500000), wk =   0.0246914
        k(    8) = (   0.3250000   0.3250000   0.3250000), wk =   0.0246914
        k(    9) = (   0.3000000   0.3000000   0.3000000), wk =   0.0246914
        k(   10) = (   0.2750000   0.2750000   0.2750000), wk =   0.0246914
        k(   11) = (   0.2500000   0.2500000   0.2500000), wk =   0.0246914
        k(   12) = (   0.2250000   0.2250000   0.2250000), wk =   0.0246914
        k(   13) = (   0.2000000   0.2000000   0.2000000), wk =   0.0246914
        k(   14) = (   0.1750000   0.1750000   0.1750000), wk =   0.0246914
        k(   15) = (   0.1500000   0.1500000   0.1500000), wk =   0.0246914
        k(   16) = (   0.1250000   0.1250000   0.1250000), wk =   0.0246914
        k(   17) = (   0.1000000   0.1000000   0.1000000), wk =   0.0246914
        k(   18) = (   0.0750000   0.0750000   0.0750000), wk =   0.0246914
        k(   19) = (   0.0500000   0.0500000   0.0500000), wk =   0.0246914
        k(   20) = (   0.0250000   0.0250000   0.0250000), wk =   0.0246914
        k(   21) = (   0.0000000   0.0000000   0.0000000), wk =   0.0246914
        k(   22) = (   0.0000000   0.0250000   0.0000000), wk =   0.0246914
        k(   23) = (   0.0000000   0.0500000   0.0000000), wk =   0.0246914
        k(   24) = (   0.0000000   0.0750000   0.0000000), wk =   0.0246914
        k(   25) = (   0.0000000   0.1000000   0.0000000), wk =   0.0246914
        k(   26) = (   0.0000000   0.1250000   0.0000000), wk =   0.0246914
        k(   27) = (   0.0000000   0.1500000   0.0000000), wk =   0.0246914
        k(   28) = (   0.0000000   0.1750000   0.0000000), wk =   0.0246914
        k(   29) = (   0.0000000   0.2000000   0.0000000), wk =   0.0246914
        k(   30) = (   0.0000000   0.2250000   0.0000000), wk =   0.0246914
        k(   31) = (   0.0000000   0.2500000   0.0000000), wk =   0.0246914
        k(   32) = (   0.0000000   0.2750000   0.0000000), wk =   0.0246914
        k(   33) = (   0.0000000   0.3000000   0.0000000), wk =   0.0246914
        k(   34) = (   0.0000000   0.3250000   0.0000000), wk =   0.0246914
        k(   35) = (   0.0000000   0.3500000   0.0000000), wk =   0.0246914
        k(   36) = (   0.0000000   0.3750000   0.0000000), wk =   0.0246914
        k(   37) = (   0.0000000   0.4000000   0.0000000), wk =   0.0246914
        k(   38) = (   0.0000000   0.4250000   0.0000000), wk =   0.0246914
        k(   39) = (   0.0000000   0.4500000   0.0000000), wk =   0.0246914
        k(   40) = (   0.0000000   0.4750000   0.0000000), wk =   0.0246914
        k(   41) = (   0.0000000   0.5000000   0.0000000), wk =   0.0246914
        k(   42) = (   0.0250000   0.5000000   0.0000000), wk =   0.0246914
        k(   43) = (   0.0500000   0.5000000   0.0000000), wk =   0.0246914
        k(   44) = (   0.0750000   0.5000000   0.0000000), wk =   0.0246914
        k(   45) = (   0.1000000   0.5000000   0.0000000), wk =   0.0246914
        k(   46) = (   0.1250000   0.5000000   0.0000000), wk =   0.0246914
        k(   47) = (   0.1500000   0.5000000   0.0000000), wk =   0.0246914
        k(   48) = (   0.1750000   0.5000000   0.0000000), wk =   0.0246914
        k(   49) = (   0.2000000   0.5000000   0.0000000), wk =   0.0246914
        k(   50) = (   0.2250000   0.5000000   0.0000000), wk =   0.0246914
        k(   51) = (   0.2500000   0.5000000   0.0000000), wk =   0.0246914
        k(   52) = (   0.2750000   0.5000000   0.0000000), wk =   0.0246914
        k(   53) = (   0.3000000   0.5000000   0.0000000), wk =   0.0246914
        k(   54) = (   0.3250000   0.5000000   0.0000000), wk =   0.0246914
        k(   55) = (   0.3500000   0.5000000   0.0000000), wk =   0.0246914
        k(   56) = (   0.3750000   0.5000000   0.0000000), wk =   0.0246914
        k(   57) = (   0.4000000   0.5000000   0.0000000), wk =   0.0246914
        k(   58) = (   0.4250000   0.5000000   0.0000000), wk =   0.0246914
        k(   59) = (   0.4500000   0.5000000   0.0000000), wk =   0.0246914
        k(   60) = (   0.4750000   0.5000000   0.0000000), wk =   0.0246914
        k(   61) = (   0.5000000   0.5000000   0.0000000), wk =   0.0246914
        k(   62) = (   0.4750000   0.4750000   0.0000000), wk =   0.0246914
        k(   63) = (   0.4500000   0.4500000   0.0000000), wk =   0.0246914
        k(   64) = (   0.4250000   0.4250000   0.0000000), wk =   0.0246914
        k(   65) = (   0.4000000   0.4000000   0.0000000), wk =   0.0246914
        k(   66) = (   0.3750000   0.3750000   0.0000000), wk =   0.0246914
        k(   67) = (   0.3500000   0.3500000   0.0000000), wk =   0.0246914
        k(   68) = (   0.3250000   0.3250000   0.0000000), wk =   0.0246914
        k(   69) = (   0.3000000   0.3000000   0.0000000), wk =   0.0246914
        k(   70) = (   0.2750000   0.2750000   0.0000000), wk =   0.0246914
        k(   71) = (   0.2500000   0.2500000   0.0000000), wk =   0.0246914
        k(   72) = (   0.2250000   0.2250000   0.0000000), wk =   0.0246914
        k(   73) = (   0.2000000   0.2000000   0.0000000), wk =   0.0246914
        k(   74) = (   0.1750000   0.1750000   0.0000000), wk =   0.0246914
        k(   75) = (   0.1500000   0.1500000   0.0000000), wk =   0.0246914
        k(   76) = (   0.1250000   0.1250000   0.0000000), wk =   0.0246914
        k(   77) = (   0.1000000   0.1000000   0.0000000), wk =   0.0246914
        k(   78) = (   0.0750000   0.0750000   0.0000000), wk =   0.0246914
        k(   79) = (   0.0500000   0.0500000   0.0000000), wk =   0.0246914
        k(   80) = (   0.0250000   0.0250000   0.0000000), wk =   0.0246914
        k(   81) = (   0.0000000   0.0000000   0.0000000), wk =   0.0246914

                       cryst. coord.
        k(    1) = (   0.5000000   0.5000000   0.5000000), wk =   0.0246914
        k(    2) = (   0.4750000   0.4750000   0.4750000), wk =   0.0246914
        k(    3) = (   0.4500000   0.4500000   0.4500000), wk =   0.0246914
        k(    4) = (   0.4250000   0.4250000   0.4250000), wk =   0.0246914
        k(    5) = (   0.4000000   0.4000000   0.4000000), wk =   0.0246914
        k(    6) = (   0.3750000   0.3750000   0.3750000), wk =   0.0246914
        k(    7) = (   0.3500000   0.3500000   0.3500000), wk =   0.0246914
        k(    8) = (   0.3250000   0.3250000   0.3250000), wk =   0.0246914
        k(    9) = (   0.3000000   0.3000000   0.3000000), wk =   0.0246914
        k(   10) = (   0.2750000   0.2750000   0.2750000), wk =   0.0246914
        k(   11) = (   0.2500000   0.2500000   0.2500000), wk =   0.0246914
        k(   12) = (   0.2250000   0.2250000   0.2250000), wk =   0.0246914
        k(   13) = (   0.2000000   0.2000000   0.2000000), wk =   0.0246914
        k(   14) = (   0.1750000   0.1750000   0.1750000), wk =   0.0246914
        k(   15) = (   0.1500000   0.1500000   0.1500000), wk =   0.0246914
        k(   16) = (   0.1250000   0.1250000   0.1250000), wk =   0.0246914
        k(   17) = (   0.1000000   0.1000000   0.1000000), wk =   0.0246914
        k(   18) = (   0.0750000   0.0750000   0.0750000), wk =   0.0246914
        k(   19) = (   0.0500000   0.0500000   0.0500000), wk =   0.0246914
        k(   20) = (   0.0250000   0.0250000   0.0250000), wk =   0.0246914
        k(   21) = (   0.0000000   0.0000000   0.0000000), wk =   0.0246914
        k(   22) = (   0.0000000   0.0250000   0.0000000), wk =   0.0246914
        k(   23) = (   0.0000000   0.0500000   0.0000000), wk =   0.0246914
        k(   24) = (   0.0000000   0.0750000   0.0000000), wk =   0.0246914
        k(   25) = (   0.0000000   0.1000000   0.0000000), wk =   0.0246914
        k(   26) = (   0.0000000   0.1250000   0.0000000), wk =   0.0246914
        k(   27) = (   0.0000000   0.1500000   0.0000000), wk =   0.0246914
        k(   28) = (   0.0000000   0.1750000   0.0000000), wk =   0.0246914
        k(   29) = (   0.0000000   0.2000000   0.0000000), wk =   0.0246914
        k(   30) = (   0.0000000   0.2250000   0.0000000), wk =   0.0246914
        k(   31) = (   0.0000000   0.2500000   0.0000000), wk =   0.0246914
        k(   32) = (   0.0000000   0.2750000   0.0000000), wk =   0.0246914
        k(   33) = (   0.0000000   0.3000000   0.0000000), wk =   0.0246914
        k(   34) = (   0.0000000   0.3250000   0.0000000), wk =   0.0246914
        k(   35) = (   0.0000000   0.3500000   0.0000000), wk =   0.0246914
        k(   36) = (   0.0000000   0.3750000   0.0000000), wk =   0.0246914
        k(   37) = (   0.0000000   0.4000000   0.0000000), wk =   0.0246914
        k(   38) = (   0.0000000   0.4250000   0.0000000), wk =   0.0246914
        k(   39) = (   0.0000000   0.4500000   0.0000000), wk =   0.0246914
        k(   40) = (   0.0000000   0.4750000   0.0000000), wk =   0.0246914
        k(   41) = (   0.0000000   0.5000000   0.0000000), wk =   0.0246914
        k(   42) = (   0.0250000   0.5000000   0.0000000), wk =   0.0246914
        k(   43) = (   0.0500000   0.5000000   0.0000000), wk =   0.0246914
        k(   44) = (   0.0750000   0.5000000   0.0000000), wk =   0.0246914
        k(   45) = (   0.1000000   0.5000000   0.0000000), wk =   0.0246914
        k(   46) = (   0.1250000   0.5000000   0.0000000), wk =   0.0246914
        k(   47) = (   0.1500000   0.5000000   0.0000000), wk =   0.0246914
        k(   48) = (   0.1750000   0.5000000   0.0000000), wk =   0.0246914
        k(   49) = (   0.2000000   0.5000000   0.0000000), wk =   0.0246914
        k(   50) = (   0.2250000   0.5000000   0.0000000), wk =   0.0246914
        k(   51) = (   0.2500000   0.5000000   0.0000000), wk =   0.0246914
        k(   52) = (   0.2750000   0.5000000   0.0000000), wk =   0.0246914
        k(   53) = (   0.3000000   0.5000000   0.0000000), wk =   0.0246914
        k(   54) = (   0.3250000   0.5000000   0.0000000), wk =   0.0246914
        k(   55) = (   0.3500000   0.5000000   0.0000000), wk =   0.0246914
        k(   56) = (   0.3750000   0.5000000   0.0000000), wk =   0.0246914
        k(   57) = (   0.4000000   0.5000000   0.0000000), wk =   0.0246914
        k(   58) = (   0.4250000   0.5000000   0.0000000), wk =   0.0246914
        k(   59) = (   0.4500000   0.5000000   0.0000000), wk =   0.0246914
        k(   60) = (   0.4750000   0.5000000   0.0000000), wk =   0.0246914
        k(   61) = (   0.5000000   0.5000000   0.0000000), wk =   0.0246914
        k(   62) = (   0.4750000   0.4750000   0.0000000), wk =   0.0246914
        k(   63) = (   0.4500000   0.4500000   0.0000000), wk =   0.0246914
        k(   64) = (   0.4250000   0.4250000   0.0000000), wk =   0.0246914
        k(   65) = (   0.4000000   0.4000000   0.0000000), wk =   0.0246914
        k(   66) = (   0.3750000   0.3750000   0.0000000), wk =   0.0246914
        k(   67) = (   0.3500000   0.3500000   0.0000000), wk =   0.0246914
        k(   68) = (   0.3250000   0.3250000   0.0000000), wk =   0.0246914
        k(   69) = (   0.3000000   0.3000000   0.0000000), wk =   0.0246914
        k(   70) = (   0.2750000   0.2750000   0.0000000), wk =   0.0246914
        k(   71) = (   0.2500000   0.2500000   0.0000000), wk =   0.0246914
        k(   72) = (   0.2250000   0.2250000   0.0000000), wk =   0.0246914
        k(   73) = (   0.2000000   0.2000000   0.0000000), wk =   0.0246914
        k(   74) = (   0.1750000   0.1750000   0.0000000), wk =   0.0246914
        k(   75) = (   0.1500000   0.1500000   0.0000000), wk =   0.0246914
        k(   76) = (   0.1250000   0.1250000   0.0000000), wk =   0.0246914
        k(   77) = (   0.1000000   0.1000000   0.0000000), wk =   0.0246914
        k(   78) = (   0.0750000   0.0750000   0.0000000), wk =   0.0246914
        k(   79) = (   0.0500000   0.0500000   0.0000000), wk =   0.0246914
        k(   80) = (   0.0250000   0.0250000   0.0000000), wk =   0.0246914
        k(   81) = (   0.0000000   0.0000000   0.0000000), wk =   0.0246914

     Dense  grid:   113801 G-vectors     FFT dimensions: (  64,  64,  64)

     Smooth grid:    36377 G-vectors     FFT dimensions: (  45,  45,  45)

     Dynamical RAM for                 wfc:       0.17 MB

     Dynamical RAM for     wfc (w. buffer):      14.26 MB

     Dynamical RAM for           str. fact:       0.52 MB

     Dynamical RAM for           local pot:       0.00 MB

     Dynamical RAM for          nlocal pot:       0.51 MB

     Dynamical RAM for                qrad:      14.62 MB

     Dynamical RAM for          rho,v,vnew:       1.18 MB

     Dynamical RAM for           G-vectors:       0.68 MB

     Dynamical RAM for          h,s,v(r/c):       0.11 MB

     Dynamical RAM for          <psi|beta>:       0.03 MB

     Dynamical RAM for                 psi:       0.35 MB

     Dynamical RAM for                hpsi:       0.35 MB

     Dynamical RAM for                spsi:       0.35 MB

     Dynamical RAM for      wfcinit/wfcrot:       0.63 MB

     Dynamical RAM for           addusdens:      96.90 MB

     Estimated static dynamical RAM per process >      33.57 MB

     Estimated max dynamical RAM per process >     130.47 MB

     Estimated total dynamical RAM >       1.27 GB

     Check: negative core charge=   -0.000001

     The potential is recalculated from file :
     ./work/pwscf.save/charge-density


     negative rho (up, down):  1.037E-05 0.000E+00
     Starting wfcs are   42 randomized atomic wfcs
     Checking if some PAW data can be deallocated... 
       PAW data deallocated on    4 nodes for type:  1
       PAW data deallocated on    8 nodes for type:  2
       PAW data deallocated on    8 nodes for type:  3

     Band Structure Calculation
     Davidson diagonalization with overlap

     Computing kpt #:     1  of    81
     total cpu time spent up to now is        1.7 secs

     Computing kpt #:     2  of    81
     total cpu time spent up to now is        1.9 secs

     Computing kpt #:     3  of    81
     total cpu time spent up to now is        2.1 secs

     Computing kpt #:     4  of    81
     total cpu time spent up to now is        2.4 secs

     Computing kpt #:     5  of    81
     total cpu time spent up to now is        2.6 secs

     Computing kpt #:     6  of    81
     total cpu time spent up to now is        2.8 secs

     Computing kpt #:     7  of    81
     total cpu time spent up to now is        3.1 secs

     Computing kpt #:     8  of    81
     total cpu time spent up to now is        3.3 secs

     Computing kpt #:     9  of    81
     total cpu time spent up to now is        3.5 secs

     Computing kpt #:    10  of    81
     total cpu time spent up to now is        3.7 secs

     Computing kpt #:    11  of    81
     total cpu time spent up to now is        3.9 secs

     Computing kpt #:    12  of    81
     total cpu time spent up to now is        4.1 secs

     Computing kpt #:    13  of    81
     total cpu time spent up to now is        4.3 secs

     Computing kpt #:    14  of    81
     total cpu time spent up to now is        4.5 secs

     Computing kpt #:    15  of    81
     total cpu time spent up to now is        4.7 secs

     Computing kpt #:    16  of    81
     total cpu time spent up to now is        5.0 secs

     Computing kpt #:    17  of    81
     total cpu time spent up to now is        5.2 secs

     Computing kpt #:    18  of    81
     total cpu time spent up to now is        5.4 secs

     Computing kpt #:    19  of    81
     total cpu time spent up to now is        5.6 secs

     Computing kpt #:    20  of    81
     total cpu time spent up to now is        5.8 secs

     Computing kpt #:    21  of    81
     total cpu time spent up to now is        6.0 secs

     Computing kpt #:    22  of    81
     total cpu time spent up to now is        6.3 secs

     Computing kpt #:    23  of    81
     total cpu time spent up to now is        6.5 secs

     Computing kpt #:    24  of    81
     total cpu time spent up to now is        6.8 secs

     Computing kpt #:    25  of    81
     total cpu time spent up to now is        7.0 secs

     Computing kpt #:    26  of    81
     total cpu time spent up to now is        7.3 secs

     Computing kpt #:    27  of    81
     total cpu time spent up to now is        7.5 secs

     Computing kpt #:    28  of    81
     total cpu time spent up to now is        7.7 secs

     Computing kpt #:    29  of    81
     total cpu time spent up to now is        8.0 secs

     Computing kpt #:    30  of    81
     total cpu time spent up to now is        8.2 secs

     Computing kpt #:    31  of    81
     total cpu time spent up to now is        8.5 secs

     Computing kpt #:    32  of    81
     total cpu time spent up to now is        8.7 secs

     Computing kpt #:    33  of    81
     total cpu time spent up to now is        8.9 secs

     Computing kpt #:    34  of    81
     total cpu time spent up to now is        9.2 secs

     Computing kpt #:    35  of    81
     total cpu time spent up to now is        9.5 secs

     Computing kpt #:    36  of    81
     total cpu time spent up to now is        9.7 secs

     Computing kpt #:    37  of    81
     total cpu time spent up to now is       10.0 secs

     Computing kpt #:    38  of    81
     total cpu time spent up to now is       10.2 secs

     Computing kpt #:    39  of    81
     total cpu time spent up to now is       10.5 secs

     Computing kpt #:    40  of    81
     total cpu time spent up to now is       10.7 secs

     Computing kpt #:    41  of    81
     total cpu time spent up to now is       11.0 secs

     Computing kpt #:    42  of    81
     total cpu time spent up to now is       11.2 secs

     Computing kpt #:    43  of    81
     total cpu time spent up to now is       11.5 secs

     Computing kpt #:    44  of    81
     total cpu time spent up to now is       11.7 secs

     Computing kpt #:    45  of    81
     total cpu time spent up to now is       11.9 secs

     Computing kpt #:    46  of    81
     total cpu time spent up to now is       12.2 secs

     Computing kpt #:    47  of    81
     total cpu time spent up to now is       12.4 secs

     Computing kpt #:    48  of    81
     total cpu time spent up to now is       12.6 secs

     Computing kpt #:    49  of    81
     total cpu time spent up to now is       12.8 secs

     Computing kpt #:    50  of    81
     total cpu time spent up to now is       13.0 secs

     Computing kpt #:    51  of    81
     total cpu time spent up to now is       13.2 secs

     Computing kpt #:    52  of    81
     total cpu time spent up to now is       13.4 secs

     Computing kpt #:    53  of    81
     total cpu time spent up to now is       13.6 secs

     Computing kpt #:    54  of    81
     total cpu time spent up to now is       13.9 secs

     Computing kpt #:    55  of    81
     total cpu time spent up to now is       14.1 secs

     Computing kpt #:    56  of    81
     total cpu time spent up to now is       14.3 secs

     Computing kpt #:    57  of    81
     total cpu time spent up to now is       14.6 secs

     Computing kpt #:    58  of    81
     total cpu time spent up to now is       14.8 secs

     Computing kpt #:    59  of    81
     total cpu time spent up to now is       15.0 secs

     Computing kpt #:    60  of    81
     total cpu time spent up to now is       15.2 secs

     Computing kpt #:    61  of    81
     total cpu time spent up to now is       15.4 secs

     Computing kpt #:    62  of    81
     total cpu time spent up to now is       15.6 secs

     Computing kpt #:    63  of    81
     total cpu time spent up to now is       15.8 secs

     Computing kpt #:    64  of    81
     total cpu time spent up to now is       16.0 secs

     Computing kpt #:    65  of    81
     total cpu time spent up to now is       16.2 secs

     Computing kpt #:    66  of    81
     total cpu time spent up to now is       16.4 secs

     Computing kpt #:    67  of    81
     total cpu time spent up to now is       16.6 secs

     Computing kpt #:    68  of    81
     total cpu time spent up to now is       16.9 secs

     Computing kpt #:    69  of    81
     total cpu time spent up to now is       17.1 secs

     Computing kpt #:    70  of    81
     total cpu time spent up to now is       17.3 secs

     Computing kpt #:    71  of    81
     total cpu time spent up to now is       17.6 secs

     Computing kpt #:    72  of    81
     total cpu time spent up to now is       17.8 secs

     Computing kpt #:    73  of    81
     total cpu time spent up to now is       18.0 secs

     Computing kpt #:    74  of    81
     total cpu time spent up to now is       18.3 secs

     Computing kpt #:    75  of    81
     total cpu time spent up to now is       18.5 secs

     Computing kpt #:    76  of    81
     total cpu time spent up to now is       18.7 secs

     Computing kpt #:    77  of    81
     total cpu time spent up to now is       19.0 secs

     Computing kpt #:    78  of    81
     total cpu time spent up to now is       19.3 secs

     Computing kpt #:    79  of    81
     total cpu time spent up to now is       19.5 secs

     Computing kpt #:    80  of    81
     total cpu time spent up to now is       19.8 secs

     Computing kpt #:    81  of    81
     total cpu time spent up to now is       20.0 secs

     ethr =  8.81E-07,  avg # of iterations = 29.9

     total cpu time spent up to now is       20.0 secs

     End of band structure calculation

          k = 0.5000 0.5000 0.5000 (  4632 PWs)   bands (ev):

   -50.6797 -24.5842 -24.5842 -24.5842 -19.0586  -4.6709  -4.6709  -4.6709
    -3.1743  -3.1743  -3.1743   6.7610   7.9926   7.9926   8.4028   8.4028
     8.4028  11.2921  11.2921  11.2922  15.5917  15.5917  15.5918  15.9676
    16.1519

          k = 0.4750 0.4750 0.4750 (  4632 PWs)   bands (ev):

   -50.6798 -24.5841 -24.5841 -24.5841 -19.0593  -4.6999  -4.6763  -4.6763
    -3.1644  -3.1644  -3.1427   6.7777   7.9998   7.9999   8.3822   8.4032
     8.4032  11.2707  11.2707  11.2838  15.5862  15.5863  15.5925  15.9623
    16.1329

          k = 0.4500 0.4500 0.4500 (  4593 PWs)   bands (ev):

   -50.6798 -24.5836 -24.5836 -24.5836 -19.0615  -4.7789  -4.6916  -4.6916
    -3.1356  -3.1356  -3.0560   6.8265   8.0215   8.0215   8.3246   8.4047
     8.4047  11.2094  11.2094  11.2590  15.5697  15.5698  15.5942  15.9446
    16.0912

          k = 0.4250 0.4250 0.4250 (  4584 PWs)   bands (ev):

   -50.6798 -24.5828 -24.5828 -24.5828 -19.0650  -4.8911  -4.7147  -4.7147
    -3.0910  -3.0910  -2.9328   6.9039   8.0566   8.0566   8.2419   8.4081
     8.4081  11.1167  11.1167  11.2186  15.5401  15.5403  15.5933  15.9086
    16.0488

          k = 0.4000 0.4000 0.4000 (  4593 PWs)   bands (ev):

   -50.6799 -24.5818 -24.5817 -24.5817 -19.0698  -5.0199  -4.7425  -4.7425
    -3.0346  -3.0346  -2.7916   7.0027   8.1037   8.1037   8.1534   8.4149
     8.4149  11.0043  11.0043  11.1640  15.4949  15.4952  15.5824  15.8571
    16.0133

          k = 0.3750 0.3750 0.3750 (  4548 PWs)   bands (ev):

   -50.6800 -24.5805 -24.5803 -24.5803 -19.0758  -5.1533  -4.7719  -4.7719
    -2.9712  -2.9712  -2.6472   7.1096   8.0856   8.1611   8.1611   8.4269
     8.4269  10.8850  10.8850  11.0970  15.4316  15.4317  15.5463  15.8108
    15.9890

          k = 0.3500 0.3500 0.3500 (  4560 PWs)   bands (ev):

   -50.6801 -24.5791 -24.5787 -24.5787 -19.0829  -5.2833  -4.8003  -4.8003
    -2.9053  -2.9053  -2.5115   7.2038   8.0720   8.2258   8.2258   8.4469
     8.4469  10.7705  10.7705  11.0197  15.3472  15.3474  15.4708  15.7898
    15.9557

          k = 0.3250 0.3250 0.3250 (  4554 PWs)   bands (ev):

   -50.6802 -24.5774 -24.5770 -24.5770 -19.0910  -5.4042  -4.8252  -4.8252
    -2.8411  -2.8411  -2.3934   7.2670   8.1415   8.2947   8.2947   8.4778
     8.4778  10.6713  10.6713  10.9345  15.2433  15.2439  15.3603  15.7921
    15.9093

          k = 0.3000 0.3000 0.3000 (  4560 PWs)   bands (ev):

   -50.6803 -24.5756 -24.5751 -24.5751 -19.0999  -5.5123  -4.8451  -4.8451
    -2.7825  -2.7825  -2.3003   7.3050   8.2963   8.3640   8.3640   8.5232
     8.5232  10.5956  10.5956  10.8438  15.1198  15.1201  15.2262  15.8071
    15.8659

          k = 0.2750 0.2750 0.2750 (  4560 PWs)   bands (ev):

   -50.6804 -24.5736 -24.5731 -24.5731 -19.1094  -5.6051  -4.8589  -4.8589
    -2.7324  -2.7324  -2.2371   7.3434   8.4302   8.4302   8.5151   8.5863
     8.5863  10.5494  10.5494  10.7501  14.9838  14.9839  15.0764  15.8278
    15.8285

          k = 0.2500 0.2500 0.2500 (  4569 PWs)   bands (ev):

   -50.6805 -24.5716 -24.5710 -24.5710 -19.1193  -5.6811  -4.8660  -4.8660
    -2.6931  -2.6931  -2.2065   7.4041   8.4901   8.4901   8.6700   8.6700
     8.7761  10.5362  10.5363  10.6562  14.8391  14.8393  14.9148  15.7907
    15.7909

          k = 0.2250 0.2250 0.2250 (  4554 PWs)   bands (ev):

   -50.6806 -24.5696 -24.5689 -24.5689 -19.1296  -5.7395  -4.8662  -4.8662
    -2.6659  -2.6659  -2.2084   7.4973   8.5415   8.5416   8.7766   8.7766
     9.0647  10.5565  10.5566  10.5634  14.6895  14.6898  14.7449  15.7505
    15.7507

          k = 0.2000 0.2000 0.2000 (  4569 PWs)   bands (ev):

   -50.6808 -24.5676 -24.5669 -24.5669 -19.1398  -5.7804  -4.8600  -4.8600
    -2.6511  -2.6511  -2.2401   7.6243   8.5834   8.5834   8.9072   8.9072
     9.3709  10.4749  10.6078  10.6078  14.5390  14.5392  14.5705  15.7012
    15.7014

          k = 0.1750 0.1750 0.1750 (  4566 PWs)   bands (ev):

   -50.6809 -24.5656 -24.5649 -24.5649 -19.1499  -5.8050  -4.8481  -4.8481
    -2.6478  -2.6478  -2.2967   7.7798   8.6159   8.6159   9.0612   9.0612
     9.6866  10.3921  10.6850  10.6851  14.3899  14.3900  14.3953  15.6348
    15.6349

          k = 0.1500 0.1500 0.1500 (  4578 PWs)   bands (ev):

   -50.6810 -24.5638 -24.5631 -24.5631 -19.1594  -5.8149  -4.8318  -4.8318
    -2.6545  -2.6545  -2.3714   7.9545   8.6403   8.6403   9.2355   9.2355
    10.0040  10.3169  10.7811  10.7812  14.2241  14.2435  14.2436  15.5409
    15.5409

          k = 0.1250 0.1250 0.1250 (  4572 PWs)   bands (ev):

   -50.6811 -24.5620 -24.5615 -24.5615 -19.1682  -5.8129  -4.8128  -4.8128
    -2.6686  -2.6686  -2.4560   8.1362   8.6581   8.6581   9.4238   9.4238
    10.2507  10.3139  10.8877  10.8877  14.0621  14.1005  14.1006  15.4124
    15.4124

          k = 0.1000 0.1000 0.1000 (  4557 PWs)   bands (ev):

   -50.6812 -24.5605 -24.5602 -24.5602 -19.1758  -5.8026  -4.7928  -4.7928
    -2.6869  -2.6869  -2.5419   8.3112   8.6709   8.6710   9.6162   9.6162
    10.1949  10.6052  10.9958  10.9959  13.9152  13.9620  13.9621  15.2564
    15.2565

          k = 0.0750 0.0750 0.0750 (  4560 PWs)   bands (ev):

   -50.6812 -24.5593 -24.5591 -24.5591 -19.1821  -5.7880  -4.7742  -4.7742
    -2.7061  -2.7061  -2.6202   8.4656   8.6799   8.6799   9.7982   9.7982
    10.1504  10.8629  11.0957  11.0957  13.7896  13.8312  13.8313  15.0982
    15.0983

          k = 0.0500 0.0500 0.0500 (  4574 PWs)   bands (ev):

   -50.6813 -24.5584 -24.5583 -24.5583 -19.1868  -5.7735  -4.7590  -4.7590
    -2.7227  -2.7227  -2.6831   8.5866   8.6858   8.6859   9.9514   9.9514
    10.1181  11.0692  11.1777  11.1778  13.6920  13.7176  13.7176  14.9660
    14.9660

          k = 0.0250 0.0250 0.0250 (  4583 PWs)   bands (ev):

   -50.6813 -24.5578 -24.5578 -24.5578 -19.1897  -5.7629  -4.7490  -4.7490
    -2.7339  -2.7339  -2.7238   8.6638   8.6892   8.6892  10.0550  10.0550
    10.0984  11.2043  11.2323  11.2323  13.6294  13.6371  13.6372  14.8801
    14.8802

          k = 0.0000 0.0000 0.0000 (  4553 PWs)   bands (ev):

   -50.6813 -24.5576 -24.5576 -24.5576 -19.1907  -5.7590  -4.7455  -4.7455
    -2.7379  -2.7379  -2.7379   8.6903   8.6903   8.6904  10.0919  10.0919
    10.0920  11.2515  11.2516  11.2516  13.6077  13.6077  13.6078  14.8505
    14.8505

          k = 0.0000 0.0250 0.0000 (  4585 PWs)   bands (ev):

   -50.6813 -24.5578 -24.5576 -24.5576 -19.1904  -5.7603  -4.7481  -4.7452
    -2.7374  -2.7374  -2.7315   8.6833   8.6890   8.6891  10.0840  10.0844
    10.0845  11.2321  11.2469  11.2469  13.6086  13.6209  13.6209  14.8590
    14.8618

          k = 0.0000 0.0500 0.0000 (  4577 PWs)   bands (ev):

   -50.6813 -24.5584 -24.5576 -24.5576 -19.1894  -5.7644  -4.7553  -4.7445
    -2.7358  -2.7358  -2.7128   8.6624   8.6851   8.6851  10.0609  10.0626
    10.0626  11.1752  11.2332  11.2332  13.6114  13.6597  13.6597  14.8841
    14.8951

          k = 0.0000 0.0750 0.0000 (  4577 PWs)   bands (ev):

   -50.6813 -24.5593 -24.5575 -24.5575 -19.1878  -5.7717  -4.7660  -4.7432
    -2.7333  -2.7333  -2.6829   8.6284   8.6786   8.6786  10.0238  10.0277
    10.0277  11.0849  11.2116  11.2117  13.6160  13.7219  13.7219  14.9247
    14.9485

          k = 0.0000 0.1000 0.0000 (  4573 PWs)   bands (ev):

   -50.6813 -24.5606 -24.5575 -24.5575 -19.1856  -5.7827  -4.7783  -4.7414
    -2.7298  -2.7298  -2.6431   8.5822   8.6692   8.6693   9.9742   9.9818
     9.9818  10.9666  11.1835  11.1835  13.6222  13.8045  13.8045  14.9788
    15.0194

          k = 0.0000 0.1250 0.0000 (  4569 PWs)   bands (ev):

   -50.6812 -24.5622 -24.5574 -24.5574 -19.1829  -5.7979  -4.7902  -4.7393
    -2.7255  -2.7255  -2.5955   8.5254   8.6571   8.6571   9.9144   9.9272
     9.9273  10.8269  11.1503  11.1503  13.6299  13.9038  13.9039  15.0439
    15.1038

          k = 0.0000 0.1500 0.0000 (  4569 PWs)   bands (ev):

   -50.6812 -24.5640 -24.5573 -24.5573 -19.1797  -5.8177  -4.7997  -4.7368
    -2.7204  -2.7204  -2.5420   8.4594   8.6420   8.6420   9.8467   9.8669
     9.8669  10.6722  11.1135  11.1135  13.6390  14.0159  14.0160  15.1167
    15.1973

          k = 0.0000 0.1750 0.0000 (  4565 PWs)   bands (ev):

   -50.6812 -24.5661 -24.5572 -24.5572 -19.1762  -5.8424  -4.8052  -4.7339
    -2.7147  -2.7146  -2.4846   8.3863   8.6239   8.6239   9.7737   9.8033
     9.8033  10.5084  11.0745  11.0745  13.6493  14.1371  14.1371  15.1927
    15.2944

          k = 0.0000 0.2000 0.0000 (  4577 PWs)   bands (ev):

   -50.6811 -24.5683 -24.5572 -24.5572 -19.1723  -5.8715  -4.8058  -4.7308
    -2.7084  -2.7084  -2.4251   8.3079   8.6029   8.6029   9.6975   9.7392
     9.7392  10.3408  11.0343  11.0344  13.6604  14.2637  14.2638  15.2675
    15.3894

          k = 0.0000 0.2250 0.0000 (  4577 PWs)   bands (ev):

   -50.6811 -24.5707 -24.5570 -24.5570 -19.1682  -5.9044  -4.8012  -4.7276
    -2.7019  -2.7019  -2.3652   8.2262   8.5792   8.5792   9.6202   9.6767
     9.6768  10.1739  10.9941  10.9941  13.6722  14.3925  14.3926  15.3368
    15.4768

          k = 0.0000 0.2500 0.0000 (  4581 PWs)   bands (ev):

   -50.6810 -24.5731 -24.5569 -24.5569 -19.1640  -5.9401  -4.7917  -4.7242
    -2.6951  -2.6951  -2.3064   8.1433   8.5530   8.5530   9.5440   9.6177
     9.6177  10.0115  10.9545  10.9546  13.6843  14.5205  14.5206  15.3979
    15.5528

          k = 0.0000 0.2750 0.0000 (  4573 PWs)   bands (ev):

   -50.6810 -24.5755 -24.5568 -24.5568 -19.1598  -5.9773  -4.7781  -4.7209
    -2.6884  -2.6884  -2.2499   8.0612   8.5249   8.5249   9.4704   9.5634
     9.5634   9.8568  10.9166  10.9166  13.6965  14.6446  14.6446  15.4476
    15.6126

          k = 0.0000 0.3000 0.0000 (  4564 PWs)   bands (ev):

   -50.6810 -24.5778 -24.5567 -24.5567 -19.1557  -6.0147  -4.7614  -4.7176
    -2.6817  -2.6817  -2.1969   7.9816   8.4957   8.4957   9.4011   9.5148
     9.5148   9.7124  10.8808  10.8808  13.7084  14.7621  14.7625  15.4879
    15.6584

          k = 0.0000 0.3250 0.0000 (  4572 PWs)   bands (ev):

   -50.6809 -24.5801 -24.5566 -24.5566 -19.1518  -6.0510  -4.7429  -4.7145
    -2.6754  -2.6754  -2.1483   7.9066   8.4664   8.4664   9.3370   9.4724
     9.4724   9.5807  10.8479  10.8479  13.7198  14.8711  14.8712  15.5190
    15.6922

          k = 0.0000 0.3500 0.0000 (  4564 PWs)   bands (ev):

   -50.6809 -24.5821 -24.5565 -24.5565 -19.1482  -6.0848  -4.7238  -4.7116
    -2.6696  -2.6696  -2.1048   7.8377   8.4380   8.4380   9.2796   9.4363
     9.4363   9.4634  10.8183  10.8183  13.7304  14.9693  14.9693  15.5430
    15.7153

          k = 0.0000 0.3750 0.0000 (  4564 PWs)   bands (ev):

   -50.6809 -24.5839 -24.5565 -24.5564 -19.1449  -6.1153  -4.7090  -4.7053
    -2.6643  -2.6643  -2.0670   7.7765   8.4116   8.4116   9.2295   9.3619
     9.4064   9.4064  10.7926  10.7926  13.7398  15.0549  15.0554  15.5606
    15.7320

          k = 0.0000 0.4000 0.0000 (  4548 PWs)   bands (ev):

   -50.6808 -24.5855 -24.5564 -24.5564 -19.1422  -6.1414  -4.7068  -4.6885
    -2.6599  -2.6599  -2.0356   7.7244   8.3883   8.3883   9.1876   9.2775
     9.3825   9.3825  10.7710  10.7710  13.7479  15.1270  15.1272  15.5739
    15.7431

          k = 0.0000 0.4250 0.0000 (  4540 PWs)   bands (ev):

   -50.6808 -24.5867 -24.5563 -24.5563 -19.1400  -6.1624  -4.7051  -4.6744
    -2.6563  -2.6563  -2.0107   7.6826   8.3691   8.3691   9.1544   9.2109
     9.3643   9.3643  10.7539  10.7540  13.7545  15.1828  15.1830  15.5833
    15.7509

          k = 0.0000 0.4500 0.0000 (  4548 PWs)   bands (ev):

   -50.6808 -24.5877 -24.5563 -24.5563 -19.1383  -6.1778  -4.7038  -4.6637
    -2.6536  -2.6536  -1.9928   7.6521   8.3548   8.3548   9.1304   9.1629
     9.3515   9.3516  10.7416  10.7416  13.7593  15.2242  15.2244  15.5896
    15.7555

          k = 0.0000 0.4750 0.0000 (  4536 PWs)   bands (ev):

   -50.6808 -24.5882 -24.5562 -24.5562 -19.1373  -6.1872  -4.7030  -4.6571
    -2.6520  -2.6520  -1.9820   7.6335   8.3460   8.3460   9.1159   9.1339
     9.3439   9.3439  10.7341  10.7341  13.7622  15.2480  15.2480  15.5932
    15.7592

          k = 0.0000 0.5000 0.0000 (  4524 PWs)   bands (ev):

   -50.6808 -24.5884 -24.5562 -24.5562 -19.1370  -6.1904  -4.7027  -4.6548
    -2.6515  -2.6515  -1.9784   7.6273   8.3430   8.3430   9.1110   9.1243
     9.3414   9.3415  10.7316  10.7316  13.7632  15.2563  15.2563  15.5945
    15.7593

          k = 0.0250 0.5000 0.0000 (  4540 PWs)   bands (ev):

   -50.6808 -24.5884 -24.5564 -24.5562 -19.1368  -6.1870  -4.7027  -4.6589
    -2.6509  -2.6488  -1.9809   7.6248   8.3439   8.3454   9.0241   9.1218
     9.3360   9.4366  10.7178  10.7230  13.7746  15.2555  15.2570  15.5947
    15.7645

          k = 0.0500 0.5000 0.0000 (  4552 PWs)   bands (ev):

   -50.6808 -24.5883 -24.5570 -24.5562 -19.1360  -6.1770  -4.7025  -4.6711
    -2.6492  -2.6411  -1.9884   7.6175   8.3466   8.3521   8.8661   9.1399
     9.3199   9.5936  10.6779  10.6979  13.8082  15.2542  15.2600  15.5955
    15.7787

          k = 0.0750 0.5000 0.0000 (  4556 PWs)   bands (ev):

   -50.6808 -24.5882 -24.5579 -24.5562 -19.1349  -6.1603  -4.7026  -4.6909
    -2.6463  -2.6286  -2.0006   7.6060   8.3510   8.3616   8.7005   9.1700
     9.2936   9.7569  10.6155  10.6575  13.8626  15.2505  15.2628  15.5968
    15.7980

          k = 0.1000 0.5000 0.0000 (  4556 PWs)   bands (ev):

   -50.6807 -24.5881 -24.5591 -24.5561 -19.1333  -6.1371  -4.7174  -4.7031
    -2.6425  -2.6120  -2.0171   7.5908   8.3572   8.3717   8.5356   9.2110
     9.2581   9.9185  10.5362  10.6042  13.9352  15.2479  15.2684  15.5985
    15.8165

          k = 0.1250 0.5000 0.0000 (  4556 PWs)   bands (ev):

   -50.6807 -24.5880 -24.5606 -24.5561 -19.1312  -6.1076  -4.7499  -4.7044
    -2.6376  -2.5917  -2.0374   7.5726   8.3651   8.3738   8.3797   9.2145
     9.2621  10.0754  10.4470  10.5403  14.0232  15.2450  15.2746  15.6007
    15.8331

          k = 0.1500 0.5000 0.0000 (  4548 PWs)   bands (ev):

   -50.6807 -24.5879 -24.5624 -24.5560 -19.1289  -6.0721  -4.7871  -4.7072
    -2.6320  -2.5688  -2.0606   7.5519   8.2169   8.3747   8.3824   9.1641
     9.3218  10.2260  10.3549  10.4685  14.1236  15.2442  15.2825  15.6032
    15.8480

          k = 0.1750 0.5000 0.0000 (  4544 PWs)   bands (ev):

   -50.6806 -24.5877 -24.5643 -24.5559 -19.1262  -6.0308  -4.8278  -4.7119
    -2.6256  -2.5438  -2.0862   7.5289   8.0661   8.3771   8.3859   9.1086
     9.3886  10.2672  10.3686  10.3912  14.2333  15.2461  15.2911  15.6061
    15.8601

          k = 0.2000 0.5000 0.0000 (  4542 PWs)   bands (ev):

   -50.6806 -24.5875 -24.5665 -24.5558 -19.1234  -5.9841  -4.8709  -4.7193
    -2.6187  -2.5177  -2.1131   7.5037   7.9225   8.3615   8.3985   9.0493
     9.4610  10.1900  10.3107  10.5022  14.3495  15.2514  15.3007  15.6091
    15.8710

          k = 0.2250 0.5000 0.0000 (  4552 PWs)   bands (ev):

   -50.6805 -24.5873 -24.5687 -24.5557 -19.1204  -5.9324  -4.9152  -4.7301
    -2.6114  -2.4911  -2.1406   7.4761   7.7869   8.3346   8.4125   8.9881
     9.5370  10.1277  10.2290  10.6258  14.4694  15.2612  15.3114  15.6124
    15.8735

          k = 0.2500 0.5000 0.0000 (  4560 PWs)   bands (ev):

   -50.6805 -24.5871 -24.5711 -24.5556 -19.1173  -5.8761  -4.9596  -4.7449
    -2.6039  -2.4646  -2.1678   7.4461   7.6603   8.2972   8.4276   8.9264
     9.6148  10.0824  10.1479  10.7388  14.5907  15.2758  15.3224  15.6159
    15.8561

          k = 0.2750 0.5000 0.0000 (  4558 PWs)   bands (ev):

   -50.6805 -24.5869 -24.5734 -24.5555 -19.1142  -5.8157  -5.0030  -4.7644
    -2.5964  -2.4390  -2.1938   7.4133   7.5433   8.2519   8.4438   8.8657
     9.6924  10.0541  10.0690  10.8404  14.7110  15.2958  15.3337  15.6196
    15.8392

          k = 0.3000 0.5000 0.0000 (  4556 PWs)   bands (ev):

   -50.6804 -24.5867 -24.5756 -24.5554 -19.1111  -5.7517  -5.0445  -4.7890
    -2.5890  -2.4147  -2.2181   7.3776   7.4366   8.2022   8.4604   8.8075
     9.7679   9.9936  10.0407  10.9306  14.8282  15.3210  15.3455  15.6233
    15.8219

          k = 0.3250 0.5000 0.0000 (  4562 PWs)   bands (ev):

   -50.6804 -24.5865 -24.5778 -24.5553 -19.1082  -5.6848  -5.0831  -4.8192
    -2.5820  -2.3922  -2.2401   7.3397   7.3410   8.1524   8.4775   8.7530
     9.8393   9.9231  10.0393  11.0092  14.9404  15.3511  15.3569  15.6271
    15.8040

          k = 0.3500 0.5000 0.0000 (  4556 PWs)   bands (ev):

   -50.6804 -24.5863 -24.5797 -24.5552 -19.1056  -5.6155  -5.1182  -4.8551
    -2.5754  -2.3719  -2.2594   7.2570   7.3005   8.1059   8.4942   8.7034
     9.8586   9.9050  10.0463  11.0763  15.0457  15.3680  15.3852  15.6308
    15.7852

          k = 0.3750 0.5000 0.0000 (  4556 PWs)   bands (ev):

   -50.6803 -24.5862 -24.5815 -24.5551 -19.1032  -5.5446  -5.1490  -4.8968
    -2.5696  -2.3542  -2.2757   7.1850   7.2616   8.0652   8.5102   8.6597
     9.8014   9.9634  10.0582  11.1323  15.1422  15.3782  15.4225  15.6342
    15.7646

          k = 0.4000 0.5000 0.0000 (  4552 PWs)   bands (ev):

   -50.6803 -24.5861 -24.5830 -24.5551 -19.1011  -5.4728  -5.1750  -4.9441
    -2.5646  -2.3393  -2.2889   7.1256   7.2253   8.0317   8.5247   8.6228
     9.7526  10.0131  10.0721  11.1773  15.2278  15.3873  15.4618  15.6373
    15.7421

          k = 0.4250 0.5000 0.0000 (  4548 PWs)   bands (ev):

   -50.6803 -24.5859 -24.5842 -24.5550 -19.0995  -5.4011  -5.1957  -4.9964
    -2.5606  -2.3274  -2.2991   7.0789   7.1939   8.0059   8.5370   8.5933
     9.7131  10.0530  10.0854  11.2118  15.3002  15.3949  15.5018  15.6399
    15.7171

          k = 0.4500 0.5000 0.0000 (  4548 PWs)   bands (ev):

   -50.6803 -24.5859 -24.5851 -24.5550 -19.0983  -5.3306  -5.2107  -5.0528
    -2.5577  -2.3189  -2.3063   7.0454   7.1697   7.9878   8.5464   8.5719
     9.6841  10.0821  10.0963  11.2362  15.3564  15.4005  15.5411  15.6419
    15.6900

          k = 0.4750 0.5000 0.0000 (  4532 PWs)   bands (ev):

   -50.6802 -24.5858 -24.5856 -24.5549 -19.0976  -5.2642  -5.2198  -5.1107
    -2.5559  -2.3137  -2.3105   7.0252   7.1544   7.9771   8.5524   8.5588
     9.6664  10.0999  10.1034  11.2507  15.3926  15.4040  15.5771  15.6432
    15.6619

          k = 0.5000 0.5000 0.0000 (  4540 PWs)   bands (ev):

   -50.6802 -24.5858 -24.5858 -24.5549 -19.0973  -5.2229  -5.2229  -5.1492
    -2.5553  -2.3119  -2.3119   7.0185   7.1492   7.9735   8.5545   8.5545
     9.6604  10.1058  10.1058  11.2555  15.4051  15.4052  15.5979  15.6437
    15.6437

          k = 0.4750 0.4750 0.0000 (  4540 PWs)   bands (ev):

   -50.6803 -24.5856 -24.5856 -24.5550 -19.0978  -5.2882  -5.2205  -5.0859
    -2.5565  -2.3140  -2.3106   7.0318   7.1599   7.9806   8.5524   8.5613
     9.6723  10.0897  10.1053  11.2460  15.3867  15.3963  15.5619  15.6449
    15.6720

          k = 0.4500 0.4500 0.0000 (  4546 PWs)   bands (ev):

   -50.6803 -24.5852 -24.5851 -24.5550 -19.0993  -5.3789  -5.2134  -5.0012
    -2.5601  -2.3200  -2.3065   7.0692   7.1938   8.0015   8.5467   8.5815
     9.7074  10.0437  10.1040  11.2179  15.3357  15.3700  15.5023  15.6486
    15.7084

          k = 0.4250 0.4250 0.0000 (  4552 PWs)   bands (ev):

   -50.6803 -24.5844 -24.5843 -24.5551 -19.1017  -5.4679  -5.2016  -4.9223
    -2.5659  -2.3301  -2.2999   7.1232   7.2569   8.0356   8.5387   8.6151
     9.7636   9.9746  10.1022  11.1731  15.2610  15.3273  15.4323  15.6537
    15.7388

          k = 0.4000 0.4000 0.0000 (  4548 PWs)   bands (ev):

   -50.6803 -24.5833 -24.5831 -24.5552 -19.1051  -5.5512  -5.1854  -4.8537
    -2.5739  -2.3441  -2.2912   7.1855   7.3549   8.0818   8.5303   8.6616
     9.8380   9.8926  10.1006  11.1146  15.1698  15.2693  15.3522  15.6593
    15.7627

          k = 0.3750 0.3750 0.0000 (  4558 PWs)   bands (ev):

   -50.6804 -24.5820 -24.5817 -24.5553 -19.1093  -5.6263  -5.1648  -4.7975
    -2.5838  -2.3618  -2.2814   7.2535   7.4867   8.1383   8.5232   8.7208
     9.8094   9.9277  10.1000  11.0462  15.0667  15.1973  15.2615  15.6637
    15.7794

          k = 0.3500 0.3500 0.0000 (  4562 PWs)   bands (ev):

   -50.6805 -24.5804 -24.5800 -24.5555 -19.1144  -5.6917  -5.1403  -4.7548
    -2.5952  -2.3830  -2.2720   7.3280   7.6473   8.2030   8.5188   8.7921
     9.7369  10.0295  10.1011  10.9724  14.9547  15.1118  15.1612  15.6657
    15.7898

          k = 0.3250 0.3250 0.0000 (  4574 PWs)   bands (ev):

   -50.6805 -24.5786 -24.5781 -24.5557 -19.1202  -5.7461  -5.1122  -4.7255
    -2.6079  -2.4074  -2.2654   7.4099   7.8308   8.2733   8.5181   8.8747
     9.6866  10.1044  10.1403  10.8987  14.8359  15.0144  15.0523  15.6637
    15.7920

          k = 0.3000 0.3000 0.0000 (  4562 PWs)   bands (ev):

   -50.6806 -24.5767 -24.5761 -24.5559 -19.1266  -5.7889  -5.0809  -4.7087
    -2.6215  -2.4348  -2.2642   7.4994   8.0318   8.3460   8.5215   8.9678
     9.6680  10.1095  10.2574  10.8313  14.7123  14.9051  14.9361  15.6565
    15.7855

          k = 0.2750 0.2750 0.0000 (  4565 PWs)   bands (ev):

   -50.6807 -24.5746 -24.5739 -24.5561 -19.1335  -5.8200  -5.0470  -4.7025
    -2.6357  -2.4646  -2.2711   7.5966   8.2445   8.4177   8.5292   9.0701
     9.6881  10.1154  10.3778  10.7773  14.5856  14.7859  14.8154  15.6421
    15.7687

          k = 0.2500 0.2500 0.0000 (  4571 PWs)   bands (ev):

   -50.6808 -24.5724 -24.5717 -24.5563 -19.1407  -5.8397  -5.0111  -4.7043
    -2.6500  -2.4965  -2.2883   7.7021   8.4635   8.4848   8.5408   9.1803
     9.7511  10.1195  10.4989  10.7440  14.4573  14.6576  14.6909  15.6182
    15.7403

          k = 0.2250 0.2250 0.0000 (  4573 PWs)   bands (ev):

   -50.6809 -24.5702 -24.5695 -24.5565 -19.1481  -5.8489  -4.9739  -4.7117
    -2.6642  -2.5296  -2.3173   7.8160   8.5443   8.5559   8.6832   9.2967
     9.8575  10.1197  10.6183  10.7376  14.3295  14.5227  14.5654  15.5815
    15.6980

          k = 0.2000 0.2000 0.0000 (  4597 PWs)   bands (ev):

   -50.6809 -24.5680 -24.5674 -24.5567 -19.1555  -5.8489  -4.9363  -4.7219
    -2.6779  -2.5633  -2.3582   7.9380   8.5738   8.5936   8.8996   9.4171
    10.0039  10.1146  10.7335  10.7607  14.2043  14.3830  14.4387  15.5273
    15.6357

          k = 0.1750 0.1750 0.0000 (  4585 PWs)   bands (ev):

   -50.6810 -24.5659 -24.5653 -24.5569 -19.1626  -5.8414  -4.8993  -4.7325
    -2.6907  -2.5968  -2.4098   8.0663   8.5936   8.6318   9.1103   9.5388
    10.1063  10.1827  10.8109  10.8422  14.0842  14.2423  14.3116  15.4501
    15.5485

          k = 0.1500 0.1500 0.0000 (  4585 PWs)   bands (ev):

   -50.6811 -24.5639 -24.5634 -24.5571 -19.1693  -5.8287  -4.8638  -4.7415
    -2.7025  -2.6290  -2.4693   8.1973   8.6140   8.6588   9.3135   9.6587
    10.0980  10.3829  10.8817  10.9420  13.9715  14.1038  14.1839  15.3497
    15.4332

          k = 0.1250 0.1250 0.0000 (  4571 PWs)   bands (ev):

   -50.6811 -24.5621 -24.5617 -24.5572 -19.1754  -5.8128  -4.8311  -4.7477
    -2.7128  -2.6589  -2.5329   8.3256   8.6340   8.6760   9.5077   9.7729
    10.0919  10.5916  10.9646  11.0311  13.8692  13.9725  14.0562  15.2335
    15.2982

          k = 0.1000 0.1000 0.0000 (  4575 PWs)   bands (ev):

   -50.6812 -24.5606 -24.5603 -24.5574 -19.1807  -5.7963  -4.8022  -4.7505
    -2.7216  -2.6855  -2.5958   8.4442   8.6525   8.6854   9.6886   9.8768
    10.0888  10.7945  11.0505  11.1073  13.7801  13.8531  13.9294  15.1143
    15.1587

          k = 0.0750 0.0750 0.0000 (  4571 PWs)   bands (ev):

   -50.6812 -24.5593 -24.5592 -24.5575 -19.1850  -5.7812  -4.7783  -4.7503
    -2.7286  -2.7075  -2.6527   8.5461   8.6682   8.6895   9.8489   9.9655
    10.0886  10.9767  11.1301  11.1690  13.7071  13.7516  13.8091  15.0068
    15.0325

          k = 0.0500 0.0500 0.0000 (  4567 PWs)   bands (ev):

   -50.6813 -24.5584 -24.5583 -24.5575 -19.1881  -5.7693  -4.7604  -4.7484
    -2.7337  -2.7241  -2.6982   8.6243   8.6802   8.6906   9.9777  10.0338
    10.0898  11.1228  11.1947  11.2144  13.6527  13.6737  13.7055  14.9224
    14.9340

          k = 0.0250 0.0250 0.0000 (  4585 PWs)   bands (ev):

   -50.6813 -24.5578 -24.5578 -24.5576 -19.1901  -5.7616  -4.7493  -4.7464
    -2.7368  -2.7344  -2.7277   8.6735   8.6878   8.6905  10.0623  10.0770
    10.0912  11.2183  11.2369  11.2422  13.6191  13.6246  13.6336  14.8688
    14.8716

          k = 0.0000 0.0000 0.0000 (  4553 PWs)   bands (ev):

   -50.6813 -24.5576 -24.5576 -24.5576 -19.1907  -5.7590  -4.7455  -4.7455
    -2.7379  -2.7379  -2.7379   8.6903   8.6904   8.6904  10.0919  10.0919
    10.0920  11.2515  11.2516  11.2516  13.6077  13.6077  13.6078  14.8505
    14.8505

     Writing all to output data dir ./work/pwscf.save/

     init_run     :      0.69s CPU      0.80s WALL (       1 calls)
     electrons    :     18.10s CPU     18.58s WALL (       1 calls)

     Called by init_run:
     wfcinit      :      0.00s CPU      0.00s WALL (       1 calls)
     wfcinit:atom :      0.02s CPU      0.02s WALL (      81 calls)
     wfcinit:wfcr :      1.14s CPU      1.19s WALL (      81 calls)
     potinit      :      0.25s CPU      0.27s WALL (       1 calls)
     hinit0       :      0.28s CPU      0.30s WALL (       1 calls)

     Called by electrons:
     c_bands      :     18.09s CPU     18.58s WALL (       1 calls)
     v_of_rho     :      0.01s CPU      0.01s WALL (       1 calls)
     v_h          :      0.00s CPU      0.00s WALL (       1 calls)
     v_xc         :      0.01s CPU      0.01s WALL (       1 calls)
     newd         :      0.10s CPU      0.14s WALL (       1 calls)
     PAW_pot      :      0.16s CPU      0.17s WALL (       1 calls)

     Called by c_bands:
     init_us_2    :      0.02s CPU      0.02s WALL (      81 calls)
     init_us_2:cp :      0.02s CPU      0.02s WALL (      81 calls)
     cegterg      :     16.74s CPU     16.87s WALL (     165 calls)

     Called by sum_band:

     Called by *egterg:
     cdiaghg      :      1.47s CPU      1.48s WALL (    2503 calls)
     cegterg:over :      1.17s CPU      1.18s WALL (    2422 calls)
     cegterg:upda :      0.28s CPU      0.29s WALL (    2422 calls)
     cegterg:last :      0.69s CPU      0.70s WALL (    1646 calls)
     h_psi        :     12.86s CPU     13.00s WALL (    2668 calls)
     s_psi        :      0.44s CPU      0.44s WALL (    2668 calls)
     g_psi        :      0.07s CPU      0.08s WALL (    2422 calls)

     Called by h_psi:
     h_psi:calbec :      0.87s CPU      0.88s WALL (    2668 calls)
     vloc_psi     :     11.49s CPU     11.62s WALL (    2668 calls)
     add_vuspsi   :      0.46s CPU      0.47s WALL (    2668 calls)

     General routines
     calbec       :      0.87s CPU      0.87s WALL (    2668 calls)
     fft          :      0.17s CPU      0.18s WALL (      13 calls)
     ffts         :      0.08s CPU      0.08s WALL (       1 calls)
     fftw         :     10.84s CPU     10.96s WALL (   89604 calls)
     interpolate  :      0.08s CPU      0.08s WALL (       1 calls)

     Parallel routines

     PAW routines
     PAW_pot      :      0.16s CPU      0.17s WALL (       1 calls)

     PWSCF        :     19.31s CPU     21.21s WALL


   This run was terminated on:  15:43:23  22Sep2023            

=------------------------------------------------------------------------------=
   JOB DONE.
=------------------------------------------------------------------------------=
