
     Program BANDS v.7.1 starts on 25Sep2023 at 16:59:53 

     This program is part of the open-source Quantum ESPRESSO suite
     for quantum simulation of materials; please cite
         "P. Giannozzi et al., J. Phys.:Condens. Matter 21 395502 (2009);
         "P. Giannozzi et al., J. Phys.:Condens. Matter 29 465901 (2017);
         "P. Giannozzi et al., J. Chem. Phys. 152 154105 (2020);
          URL http://www.quantum-espresso.org", 
     in publications or presentations arising from this work. More details at
     http://www.quantum-espresso.org/quote

     Parallel version (MPI & OpenMP), running on      10 processor cores
     Number of MPI processes:                10
     Threads/MPI process:                     1

     MPI processes distributed on     1 nodes
     R & G space division:  proc/nbgrp/npool/nimage =      10
     11151 MiB available memory on the printing compute node when the environment starts


     Reading xml data from directory:

     ./work/pwscf.save/
     file Bi.pbe-dn-rrkjus_psl.1.0.0.UPF: wavefunction(s)  5D renormalized
     file Mg.pbe-spn-rrkjus_psl.1.0.0.UPF: wavefunction(s)  2S renormalized

     IMPORTANT: XC functional enforced from input :
     Exchange-correlation= PBE
                           (   1   4   3   4   0   0   0)
     Any further DFT definition will be discarded
     Please, verify this is what you really want


     Parallelization info
     --------------------
     sticks:   dense  smooth     PW     G-vecs:    dense   smooth      PW
     Min         251     210     58                15921    12520    1806
     Max         252     211     59                15924    12531    1813
     Sum        2515    2107    583               159233   125267   18077

     Using Slab Decomposition

     Reading collected, re-writing distributed wavefunctions
     high-symmetry point:  0.0000 0.0000 0.0000   x coordinate   0.0000
     high-symmetry point:  0.5774 0.0000 0.0000   x coordinate   0.5774
     high-symmetry point:  0.5768 0.3330 0.0000   x coordinate   0.9104
     high-symmetry point:  0.0000 0.0000 0.0000   x coordinate   1.5764
     high-symmetry point:  0.0000 0.0000 0.3170   x coordinate   1.8933

     Plottable bands (eV) written to file bands.out.gnu
     Bands written to file bands.out

 **************************************************************************

                    xk=(   0.00000,   0.00000,   0.00000  )

     point group D_3d (-3m) 
     there are  6 classes
     the character table:

       E     2C3   3C2'  i     2S6   3s_d 
A_1g   1.00  1.00  1.00  1.00  1.00  1.00
A_2g   1.00  1.00 -1.00  1.00  1.00 -1.00
E_g    2.00 -1.00  0.00  2.00 -1.00  0.00
A_1u   1.00  1.00  1.00 -1.00 -1.00 -1.00
A_2u   1.00  1.00 -1.00 -1.00 -1.00  1.00
E_u    2.00 -1.00  0.00 -2.00  1.00  0.00

     the symmetry operations in each class and the name of the first element:

     E        1
                                                                 
     2C3      3    4
                                                                 
     3C2'     2    6    5
                                                                 
     i        7
                                                                 
     2S6      9   10
                                                                 
     3s_d     8   12   11
                                                                 

     Band symmetry, D_3d (-3m)  point group:

     e(  1 -  1) =    -69.78601  eV     1   --> A_1g L_1       
     e(  2 -  2) =    -69.18770  eV     1   --> A_1g L_1       
     e(  3 -  3) =    -69.18700  eV     1   --> A_2u L_2'      
     e(  4 -  4) =    -36.53309  eV     1   --> A_2u L_2'      
     e(  5 -  6) =    -36.53008  eV     2   --> E_u  L_3'      
     e(  7 -  8) =    -35.93578  eV     2   --> E_g  L_3       
     e(  9 - 11) =    -35.93166  eV     3   --> A_1g L_1       
     e(  9 - 11) =    -35.93166  eV     3   --> E_u  L_3'      
     e( 12 - 12) =    -35.92765  eV     1   --> A_2u L_2'      
     e( 13 - 14) =    -14.87231  eV     2   --> E_u  L_3'      
     e( 15 - 16) =    -14.87072  eV     2   --> E_g  L_3       
     e( 17 - 17) =    -14.85573  eV     1   --> A_2u L_2'      
     e( 18 - 18) =    -14.85464  eV     1   --> A_1g L_1       
     e( 19 - 20) =    -14.84335  eV     2   --> E_g  L_3       
     e( 21 - 22) =    -14.83263  eV     2   --> E_u  L_3'      
     e( 23 - 23) =     -4.06215  eV     1   --> A_1g L_1       
     e( 24 - 24) =     -3.19903  eV     1   --> A_2u L_2'      
     e( 25 - 25) =      2.54979  eV     1   --> A_1g L_1       
     e( 26 - 27) =      6.33212  eV     2   --> E_g  L_3       
     e( 28 - 28) =      7.01359  eV     1   --> A_1g L_1       
     e( 29 - 30) =      7.02491  eV     2   --> E_u  L_3'      
     e( 31 - 31) =      7.27106  eV     1   --> A_2u L_2'      
     e( 32 - 32) =      8.06291  eV     1   --> A_2u L_2'      
     e( 33 - 34) =     10.37079  eV     2   --> E_u  L_3'      
     e( 35 - 35) =     11.07601  eV     1   --> A_1g L_1       
     e( 36 - 37) =     11.29161  eV     2   --> E_g  L_3       
     e( 38 - 38) =     11.64037  eV     1   --> A_1g L_1       
     e( 39 - 39) =     12.39342  eV     1   --> A_2u L_2'      
     e( 40 - 40) =     12.43326  eV     1   -->   ?
     e( 41 - 42) =     12.51072  eV     2   -->   ?

 **************************************************************************

 **************************************************************************

                    xk=(   0.02887,   0.00000,   0.00000  )

     point group C_s (m)    
     there are  2 classes
     the character table:

       E     s    
A'     1.00  1.00
A''    1.00 -1.00

     the symmetry operations in each class and the name of the first element:

     E        1
                                                                 
     s        2
                                                                 

     Band symmetry, C_s (m)     point group:

     e(  1 -  1) =    -69.78601  eV     1   --> A'             
     e(  2 -  2) =    -69.18769  eV     1   --> A'             
     e(  3 -  3) =    -69.18700  eV     1   --> A'             
     e(  4 -  4) =    -36.53309  eV     1   --> A'             
     e(  5 -  6) =    -36.53008  eV     2   --> A'             
     e(  5 -  6) =    -36.53008  eV     2   --> A''            
     e(  7 -  8) =    -35.93578  eV     2   --> A'             
     e(  7 -  8) =    -35.93578  eV     2   --> A''            
     e(  9 -  9) =    -35.93184  eV     1   --> A'             
     e( 10 - 10) =    -35.93166  eV     1   --> A''            
     e( 11 - 11) =    -35.93144  eV     1   --> A'             
     e( 12 - 12) =    -35.92765  eV     1   --> A'             
     e( 13 - 14) =    -14.87234  eV     2   --> A'             
     e( 13 - 14) =    -14.87234  eV     2   --> A''            
     e( 15 - 16) =    -14.87071  eV     2   --> A'             
     e( 15 - 16) =    -14.87071  eV     2   --> A''            
     e( 17 - 17) =    -14.85571  eV     1   --> A'             
     e( 18 - 18) =    -14.85462  eV     1   --> A'             
     e( 19 - 20) =    -14.84333  eV     2   --> A'             
     e( 19 - 20) =    -14.84333  eV     2   --> A''            
     e( 21 - 22) =    -14.83265  eV     2   --> A'             
     e( 21 - 22) =    -14.83265  eV     2   --> A''            
     e( 23 - 23) =     -4.05892  eV     1   --> A'             
     e( 24 - 24) =     -3.19748  eV     1   --> A'             
     e( 25 - 25) =      2.55509  eV     1   --> A'             
     e( 26 - 26) =      6.26427  eV     1   --> A'             
     e( 27 - 27) =      6.31670  eV     1   --> A''            
     e( 28 - 28) =      6.73479  eV     1   --> A'             
     e( 29 - 29) =      7.02827  eV     1   --> A''            
     e( 30 - 30) =      7.27983  eV     1   --> A'             
     e( 31 - 31) =      7.31132  eV     1   --> A'             
     e( 32 - 32) =      8.10917  eV     1   --> A'             
     e( 33 - 33) =     10.30873  eV     1   --> A'             
     e( 34 - 34) =     10.37873  eV     1   --> A''            
     e( 35 - 35) =     11.10404  eV     1   --> A'             
     e( 36 - 36) =     11.23782  eV     1   --> A'             
     e( 37 - 37) =     11.29212  eV     1   --> A''            
     e( 38 - 38) =     11.68770  eV     1   --> A'             
     e( 39 - 39) =     12.29461  eV     1   --> A'             
     e( 40 - 40) =     12.35333  eV     1   --> A''            
     e( 41 - 41) =     12.46781  eV     1   --> A'             
     e( 42 - 42) =     12.56910  eV     1   --> A'             

 **************************************************************************

 **************************************************************************

                    xk=(   0.05774,   0.00000,   0.00000  )

     Band symmetry, C_s (m)     point group:

     e(  1 -  1) =    -69.78601  eV     1   --> A'             
     e(  2 -  2) =    -69.18769  eV     1   --> A'             
     e(  3 -  3) =    -69.18700  eV     1   --> A'             
     e(  4 -  4) =    -36.53309  eV     1   --> A'             
     e(  5 -  6) =    -36.53008  eV     2   --> A'             
     e(  5 -  6) =    -36.53008  eV     2   --> A''            
     e(  7 -  8) =    -35.93579  eV     2   --> A'             
     e(  7 -  8) =    -35.93579  eV     2   --> A''            
     e(  9 -  9) =    -35.93204  eV     1   --> A'             
     e( 10 - 10) =    -35.93165  eV     1   --> A''            
     e( 11 - 11) =    -35.93125  eV     1   --> A'             
     e( 12 - 12) =    -35.92765  eV     1   --> A'             
     e( 13 - 13) =    -14.87244  eV     1   --> A'             
     e( 14 - 14) =    -14.87225  eV     1   --> A''            
     e( 15 - 16) =    -14.87069  eV     2   --> A'             
     e( 15 - 16) =    -14.87069  eV     2   --> A''            
     e( 17 - 17) =    -14.85566  eV     1   --> A'             
     e( 18 - 18) =    -14.85457  eV     1   --> A'             
     e( 19 - 20) =    -14.84329  eV     2   --> A'             
     e( 19 - 20) =    -14.84329  eV     2   --> A''            
     e( 21 - 21) =    -14.83272  eV     1   --> A'             
     e( 22 - 22) =    -14.83257  eV     1   --> A''            
     e( 23 - 23) =     -4.04927  eV     1   --> A'             
     e( 24 - 24) =     -3.19287  eV     1   --> A'             
     e( 25 - 25) =      2.57097  eV     1   --> A'             
     e( 26 - 26) =      6.08448  eV     1   --> A'             
     e( 27 - 27) =      6.27310  eV     1   --> A''            
     e( 28 - 28) =      6.46717  eV     1   --> A'             
     e( 29 - 29) =      7.03605  eV     1   --> A''            
     e( 30 - 30) =      7.29301  eV     1   --> A'             
     e( 31 - 31) =      7.59690  eV     1   --> A'             
     e( 32 - 32) =      8.23924  eV     1   --> A'             
     e( 33 - 33) =     10.16217  eV     1   --> A'             
     e( 34 - 34) =     10.40252  eV     1   --> A''            
     e( 35 - 35) =     11.10456  eV     1   --> A'             
     e( 36 - 36) =     11.16678  eV     1   --> A'             
     e( 37 - 37) =     11.29005  eV     1   --> A''            
     e( 38 - 38) =     11.78929  eV     1   --> A'             
     e( 39 - 39) =     12.12720  eV     1   --> A'             
     e( 40 - 40) =     12.28812  eV     1   --> A''            
     e( 41 - 41) =     12.55083  eV     1   --> A'             
     e( 42 - 42) =     12.66934  eV     1   --> A'             

 **************************************************************************

 **************************************************************************

                    xk=(   0.08660,   0.00000,   0.00000  )

     Band symmetry, C_s (m)     point group:

     e(  1 -  1) =    -69.78601  eV     1   --> A'             
     e(  2 -  2) =    -69.18769  eV     1   --> A'             
     e(  3 -  3) =    -69.18701  eV     1   --> A'             
     e(  4 -  4) =    -36.53309  eV     1   --> A'             
     e(  5 -  6) =    -36.53009  eV     2   --> A'             
     e(  5 -  6) =    -36.53009  eV     2   --> A''            
     e(  7 -  8) =    -35.93581  eV     2   --> A'             
     e(  7 -  8) =    -35.93581  eV     2   --> A''            
     e(  9 -  9) =    -35.93224  eV     1   --> A'             
     e( 10 - 10) =    -35.93164  eV     1   --> A''            
     e( 11 - 11) =    -35.93105  eV     1   --> A'             
     e( 12 - 12) =    -35.92765  eV     1   --> A'             
     e( 13 - 13) =    -14.87259  eV     1   --> A'             
     e( 14 - 14) =    -14.87218  eV     1   --> A''            
     e( 15 - 15) =    -14.87066  eV     1   --> A'             
     e( 16 - 16) =    -14.87046  eV     1   --> A''            
     e( 17 - 17) =    -14.85558  eV     1   --> A'             
     e( 18 - 18) =    -14.85449  eV     1   --> A'             
     e( 19 - 20) =    -14.84323  eV     2   --> A'             
     e( 19 - 20) =    -14.84323  eV     2   --> A''            
     e( 21 - 21) =    -14.83282  eV     1   --> A'             
     e( 22 - 22) =    -14.83251  eV     1   --> A''            
     e( 23 - 23) =     -4.03329  eV     1   --> A'             
     e( 24 - 24) =     -3.18533  eV     1   --> A'             
     e( 25 - 25) =      2.59738  eV     1   --> A'             
     e( 26 - 26) =      5.83829  eV     1   --> A'             
     e( 27 - 27) =      6.20754  eV     1   --> A''            
     e( 28 - 28) =      6.21637  eV     1   --> A'             
     e( 29 - 29) =      7.04299  eV     1   --> A''            
     e( 30 - 30) =      7.28903  eV     1   --> A'             
     e( 31 - 31) =      7.86864  eV     1   --> A'             
     e( 32 - 32) =      8.42582  eV     1   --> A'             
     e( 33 - 33) =      9.99163  eV     1   --> A'             
     e( 34 - 34) =     10.44166  eV     1   --> A''            
     e( 35 - 35) =     10.94342  eV     1   --> A'             
     e( 36 - 36) =     11.23924  eV     1   --> A'             
     e( 37 - 37) =     11.27853  eV     1   --> A''            
     e( 38 - 38) =     11.74345  eV     1   --> A'             
     e( 39 - 39) =     12.14905  eV     1   --> A'             
     e( 40 - 40) =     12.27770  eV     1   --> A''            
     e( 41 - 41) =     12.52143  eV     1   --> A'             
     e( 42 - 42) =     12.91135  eV     1   --> A'             

 **************************************************************************

 **************************************************************************

                    xk=(   0.11547,   0.00000,   0.00000  )

     Band symmetry, C_s (m)     point group:

     e(  1 -  1) =    -69.78602  eV     1   --> A'             
     e(  2 -  2) =    -69.18769  eV     1   --> A'             
     e(  3 -  3) =    -69.18702  eV     1   --> A'             
     e(  4 -  4) =    -36.53309  eV     1   --> A'             
     e(  5 -  6) =    -36.53010  eV     2   --> A'             
     e(  5 -  6) =    -36.53010  eV     2   --> A''            
     e(  7 -  8) =    -35.93583  eV     2   --> A'             
     e(  7 -  8) =    -35.93583  eV     2   --> A''            
     e(  9 -  9) =    -35.93244  eV     1   --> A'             
     e( 10 - 10) =    -35.93163  eV     1   --> A''            
     e( 11 - 11) =    -35.93086  eV     1   --> A'             
     e( 12 - 12) =    -35.92766  eV     1   --> A'             
     e( 13 - 13) =    -14.87279  eV     1   --> A'             
     e( 14 - 14) =    -14.87210  eV     1   --> A''            
     e( 15 - 15) =    -14.87062  eV     1   --> A'             
     e( 16 - 16) =    -14.87026  eV     1   --> A''            
     e( 17 - 17) =    -14.85547  eV     1   --> A'             
     e( 18 - 18) =    -14.85437  eV     1   --> A'             
     e( 19 - 20) =    -14.84313  eV     2   --> A'             
     e( 19 - 20) =    -14.84313  eV     2   --> A''            
     e( 21 - 21) =    -14.83297  eV     1   --> A'             
     e( 22 - 22) =    -14.83241  eV     1   --> A''            
     e( 23 - 23) =     -4.01115  eV     1   --> A'             
     e( 24 - 24) =     -3.17510  eV     1   --> A'             
     e( 25 - 25) =      2.63425  eV     1   --> A'             
     e( 26 - 26) =      5.56261  eV     1   --> A'             
     e( 27 - 27) =      5.97578  eV     1   --> A'             
     e( 28 - 28) =      6.12695  eV     1   --> A''            
     e( 29 - 29) =      7.04406  eV     1   --> A''            
     e( 30 - 30) =      7.26334  eV     1   --> A'             
     e( 31 - 31) =      8.12050  eV     1   --> A'             
     e( 32 - 32) =      8.62355  eV     1   --> A'             
     e( 33 - 33) =      9.84558  eV     1   --> A'             
     e( 34 - 34) =     10.49305  eV     1   --> A''            
     e( 35 - 35) =     10.78024  eV     1   --> A'             
     e( 36 - 36) =     11.25728  eV     1   --> A''            
     e( 37 - 37) =     11.31858  eV     1   --> A'             
     e( 38 - 38) =     11.56509  eV     1   --> A'             
     e( 39 - 39) =     12.27500  eV     1   --> A'             
     e( 40 - 40) =     12.32831  eV     1   --> A''            
     e( 41 - 41) =     12.55620  eV     1   --> A'             
     e( 42 - 42) =     13.19282  eV     1   -->   ?

 **************************************************************************

 **************************************************************************

                    xk=(   0.14434,   0.00000,   0.00000  )

     Band symmetry, C_s (m)     point group:

     e(  1 -  1) =    -69.78602  eV     1   --> A'             
     e(  2 -  2) =    -69.18768  eV     1   --> A'             
     e(  3 -  3) =    -69.18703  eV     1   --> A'             
     e(  4 -  4) =    -36.53309  eV     1   --> A'             
     e(  5 -  6) =    -36.53011  eV     2   --> A'             
     e(  5 -  6) =    -36.53011  eV     2   --> A''            
     e(  7 -  8) =    -35.93585  eV     2   --> A'             
     e(  7 -  8) =    -35.93585  eV     2   --> A''            
     e(  9 -  9) =    -35.93264  eV     1   --> A'             
     e( 10 - 10) =    -35.93161  eV     1   --> A''            
     e( 11 - 11) =    -35.93067  eV     1   --> A'             
     e( 12 - 12) =    -35.92767  eV     1   --> A'             
     e( 13 - 13) =    -14.87302  eV     1   --> A'             
     e( 14 - 14) =    -14.87199  eV     1   --> A''            
     e( 15 - 15) =    -14.87057  eV     1   --> A'             
     e( 16 - 16) =    -14.87001  eV     1   --> A''            
     e( 17 - 17) =    -14.85533  eV     1   --> A'             
     e( 18 - 18) =    -14.85422  eV     1   --> A'             
     e( 19 - 20) =    -14.84300  eV     2   --> A'             
     e( 19 - 20) =    -14.84300  eV     2   --> A''            
     e( 21 - 21) =    -14.83314  eV     1   --> A'             
     e( 22 - 22) =    -14.83229  eV     1   --> A''            
     e( 23 - 23) =     -3.98308  eV     1   --> A'             
     e( 24 - 24) =     -3.16250  eV     1   --> A'             
     e( 25 - 25) =      2.68144  eV     1   --> A'             
     e( 26 - 26) =      5.27852  eV     1   --> A'             
     e( 27 - 27) =      5.74133  eV     1   --> A'             
     e( 28 - 28) =      6.03717  eV     1   --> A''            
     e( 29 - 29) =      7.03613  eV     1   --> A''            
     e( 30 - 30) =      7.21691  eV     1   --> A'             
     e( 31 - 31) =      8.34879  eV     1   --> A'             
     e( 32 - 32) =      8.76406  eV     1   --> A'             
     e( 33 - 33) =      9.78281  eV     1   --> A'             
     e( 34 - 34) =     10.54756  eV     1   --> A''            
     e( 35 - 35) =     10.63158  eV     1   --> A'             
     e( 36 - 36) =     11.23958  eV     1   --> A''            
     e( 37 - 37) =     11.31301  eV     1   --> A'             
     e( 38 - 38) =     11.48360  eV     1   --> A'             
     e( 39 - 39) =     12.27388  eV     1   --> A'             
     e( 40 - 40) =     12.43521  eV     1   --> A''            
     e( 41 - 41) =     12.77107  eV     1   --> A'             
     e( 42 - 42) =     13.41403  eV     1   --> A''            

 **************************************************************************

 **************************************************************************

                    xk=(   0.17321,   0.00000,   0.00000  )

     Band symmetry, C_s (m)     point group:

     e(  1 -  1) =    -69.78602  eV     1   --> A'             
     e(  2 -  2) =    -69.18767  eV     1   --> A'             
     e(  3 -  3) =    -69.18704  eV     1   --> A'             
     e(  4 -  4) =    -36.53309  eV     1   --> A'             
     e(  5 -  6) =    -36.53011  eV     2   --> A'             
     e(  5 -  6) =    -36.53011  eV     2   --> A''            
     e(  7 -  8) =    -35.93588  eV     2   --> A'             
     e(  7 -  8) =    -35.93588  eV     2   --> A''            
     e(  9 -  9) =    -35.93282  eV     1   --> A'             
     e( 10 - 10) =    -35.93159  eV     1   --> A''            
     e( 11 - 11) =    -35.93047  eV     1   --> A'             
     e( 12 - 12) =    -35.92767  eV     1   --> A'             
     e( 13 - 13) =    -14.87328  eV     1   --> A'             
     e( 14 - 14) =    -14.87186  eV     1   --> A''            
     e( 15 - 15) =    -14.87053  eV     1   --> A'             
     e( 16 - 16) =    -14.86971  eV     1   --> A''            
     e( 17 - 17) =    -14.85517  eV     1   --> A'             
     e( 18 - 18) =    -14.85404  eV     1   --> A'             
     e( 19 - 20) =    -14.84282  eV     2   --> A'             
     e( 19 - 20) =    -14.84282  eV     2   --> A''            
     e( 21 - 21) =    -14.83334  eV     1   --> A'             
     e( 22 - 22) =    -14.83214  eV     1   --> A''            
     e( 23 - 23) =     -3.94939  eV     1   --> A'             
     e( 24 - 24) =     -3.14794  eV     1   --> A'             
     e( 25 - 25) =      2.73880  eV     1   --> A'             
     e( 26 - 26) =      4.99654  eV     1   --> A'             
     e( 27 - 27) =      5.51252  eV     1   --> A'             
     e( 28 - 28) =      5.94269  eV     1   --> A''            
     e( 29 - 29) =      7.01811  eV     1   --> A''            
     e( 30 - 30) =      7.15083  eV     1   --> A'             
     e( 31 - 31) =      8.54876  eV     1   --> A'             
     e( 32 - 32) =      8.78010  eV     1   --> A'             
     e( 33 - 33) =      9.85596  eV     1   --> A'             
     e( 34 - 34) =     10.51127  eV     1   --> A'             
     e( 35 - 35) =     10.58781  eV     1   --> A''            
     e( 36 - 36) =     11.16098  eV     1   --> A'             
     e( 37 - 37) =     11.25077  eV     1   --> A''            
     e( 38 - 38) =     11.58921  eV     1   --> A'             
     e( 39 - 39) =     12.23615  eV     1   --> A'             
     e( 40 - 40) =     12.58814  eV     1   --> A''            
     e( 41 - 41) =     13.06095  eV     1   --> A'             
     e( 42 - 42) =     13.64862  eV     1   --> A''            

 **************************************************************************

 **************************************************************************

                    xk=(   0.20207,   0.00000,   0.00000  )

     Band symmetry, C_s (m)     point group:

     e(  1 -  1) =    -69.78601  eV     1   --> A'             
     e(  2 -  2) =    -69.18766  eV     1   --> A'             
     e(  3 -  3) =    -69.18705  eV     1   --> A'             
     e(  4 -  4) =    -36.53308  eV     1   --> A'             
     e(  5 -  6) =    -36.53012  eV     2   --> A'             
     e(  5 -  6) =    -36.53012  eV     2   --> A''            
     e(  7 -  8) =    -35.93591  eV     2   --> A'             
     e(  7 -  8) =    -35.93591  eV     2   --> A''            
     e(  9 -  9) =    -35.93300  eV     1   --> A'             
     e( 10 - 10) =    -35.93156  eV     1   --> A''            
     e( 11 - 11) =    -35.93029  eV     1   --> A'             
     e( 12 - 12) =    -35.92768  eV     1   --> A'             
     e( 13 - 13) =    -14.87355  eV     1   --> A'             
     e( 14 - 14) =    -14.87172  eV     1   --> A''            
     e( 15 - 15) =    -14.87048  eV     1   --> A'             
     e( 16 - 16) =    -14.86937  eV     1   --> A''            
     e( 17 - 17) =    -14.85500  eV     1   --> A'             
     e( 18 - 18) =    -14.85385  eV     1   --> A'             
     e( 19 - 20) =    -14.84261  eV     2   --> A'             
     e( 19 - 20) =    -14.84261  eV     2   --> A''            
     e( 21 - 21) =    -14.83356  eV     1   --> A'             
     e( 22 - 22) =    -14.83197  eV     1   --> A''            
     e( 23 - 23) =     -3.91046  eV     1   --> A'             
     e( 24 - 24) =     -3.13192  eV     1   --> A'             
     e( 25 - 25) =      2.80609  eV     1   --> A'             
     e( 26 - 26) =      4.72228  eV     1   --> A'             
     e( 27 - 27) =      5.29031  eV     1   --> A'             
     e( 28 - 28) =      5.84687  eV     1   --> A''            
     e( 29 - 29) =      6.99058  eV     1   --> A''            
     e( 30 - 30) =      7.06549  eV     1   --> A'             
     e( 31 - 31) =      8.68176  eV     1   --> A'             
     e( 32 - 32) =      8.71990  eV     1   --> A'             
     e( 33 - 33) =     10.01386  eV     1   --> A'             
     e( 34 - 34) =     10.45055  eV     1   --> A'             
     e( 35 - 35) =     10.59530  eV     1   --> A''            
     e( 36 - 36) =     11.02512  eV     1   --> A'             
     e( 37 - 37) =     11.31585  eV     1   --> A''            
     e( 38 - 38) =     11.72612  eV     1   --> A'             
     e( 39 - 39) =     12.21983  eV     1   --> A'             
     e( 40 - 40) =     12.77688  eV     1   --> A''            
     e( 41 - 41) =     13.37384  eV     1   --> A'             
     e( 42 - 42) =     13.89451  eV     1   --> A''            

 **************************************************************************

 **************************************************************************

                    xk=(   0.23094,   0.00000,   0.00000  )

     Band symmetry, C_s (m)     point group:

     e(  1 -  1) =    -69.78602  eV     1   --> A'             
     e(  2 -  2) =    -69.18765  eV     1   --> A'             
     e(  3 -  3) =    -69.18706  eV     1   --> A'             
     e(  4 -  4) =    -36.53308  eV     1   --> A'             
     e(  5 -  6) =    -36.53013  eV     2   --> A'             
     e(  5 -  6) =    -36.53013  eV     2   --> A''            
     e(  7 -  8) =    -35.93594  eV     2   --> A'             
     e(  7 -  8) =    -35.93594  eV     2   --> A''            
     e(  9 -  9) =    -35.93317  eV     1   --> A'             
     e( 10 - 10) =    -35.93154  eV     1   --> A''            
     e( 11 - 11) =    -35.93011  eV     1   --> A'             
     e( 12 - 12) =    -35.92769  eV     1   --> A'             
     e( 13 - 13) =    -14.87386  eV     1   --> A'             
     e( 14 - 14) =    -14.87158  eV     1   --> A''            
     e( 15 - 15) =    -14.87046  eV     1   --> A'             
     e( 16 - 16) =    -14.86900  eV     1   --> A''            
     e( 17 - 17) =    -14.85483  eV     1   --> A'             
     e( 18 - 18) =    -14.85364  eV     1   --> A'             
     e( 19 - 20) =    -14.84237  eV     2   --> A'             
     e( 19 - 20) =    -14.84237  eV     2   --> A''            
     e( 21 - 21) =    -14.83382  eV     1   --> A'             
     e( 22 - 22) =    -14.83178  eV     1   --> A''            
     e( 23 - 23) =     -3.86678  eV     1   --> A'             
     e( 24 - 24) =     -3.11505  eV     1   --> A'             
     e( 25 - 25) =      2.88295  eV     1   --> A'             
     e( 26 - 26) =      4.45921  eV     1   --> A'             
     e( 27 - 27) =      5.07611  eV     1   --> A'             
     e( 28 - 28) =      5.75225  eV     1   --> A''            
     e( 29 - 29) =      6.95511  eV     1   --> A''            
     e( 30 - 30) =      6.96097  eV     1   --> A'             
     e( 31 - 31) =      8.54443  eV     1   --> A'             
     e( 32 - 32) =      8.84100  eV     1   --> A'             
     e( 33 - 33) =     10.09666  eV     1   --> A'             
     e( 34 - 34) =     10.53713  eV     1   --> A'             
     e( 35 - 35) =     10.56745  eV     1   --> A''            
     e( 36 - 36) =     10.93858  eV     1   --> A'             
     e( 37 - 37) =     11.44116  eV     1   --> A''            
     e( 38 - 38) =     11.85320  eV     1   --> A'             
     e( 39 - 39) =     12.26324  eV     1   --> A'             
     e( 40 - 40) =     12.99344  eV     1   --> A''            
     e( 41 - 41) =     13.69561  eV     1   --> A'             
     e( 42 - 42) =     14.15057  eV     1   --> A''            

 **************************************************************************

 **************************************************************************

                    xk=(   0.25981,   0.00000,   0.00000  )

     Band symmetry, C_s (m)     point group:

     e(  1 -  1) =    -69.78602  eV     1   --> A'             
     e(  2 -  2) =    -69.18764  eV     1   --> A'             
     e(  3 -  3) =    -69.18708  eV     1   --> A'             
     e(  4 -  4) =    -36.53308  eV     1   --> A'             
     e(  5 -  6) =    -36.53014  eV     2   --> A'             
     e(  5 -  6) =    -36.53014  eV     2   --> A''            
     e(  7 -  7) =    -35.93598  eV     1   --> A''            
     e(  8 -  8) =    -35.93585  eV     1   --> A'             
     e(  9 -  9) =    -35.93334  eV     1   --> A'             
     e( 10 - 10) =    -35.93151  eV     1   --> A''            
     e( 11 - 11) =    -35.92994  eV     1   --> A'             
     e( 12 - 12) =    -35.92771  eV     1   --> A'             
     e( 13 - 13) =    -14.87418  eV     1   --> A'             
     e( 14 - 14) =    -14.87144  eV     1   --> A''            
     e( 15 - 15) =    -14.87045  eV     1   --> A'             
     e( 16 - 16) =    -14.86862  eV     1   --> A''            
     e( 17 - 17) =    -14.85466  eV     1   --> A'             
     e( 18 - 18) =    -14.85341  eV     1   --> A'             
     e( 19 - 20) =    -14.84211  eV     2   --> A'             
     e( 19 - 20) =    -14.84211  eV     2   --> A''            
     e( 21 - 21) =    -14.83410  eV     1   --> A'             
     e( 22 - 22) =    -14.83158  eV     1   --> A''            
     e( 23 - 23) =     -3.81891  eV     1   --> A'             
     e( 24 - 24) =     -3.09798  eV     1   --> A'             
     e( 25 - 25) =      2.96886  eV     1   --> A'             
     e( 26 - 26) =      4.20998  eV     1   --> A'             
     e( 27 - 27) =      4.87140  eV     1   --> A'             
     e( 28 - 28) =      5.66071  eV     1   --> A''            
     e( 29 - 29) =      6.83767  eV     1   --> A'             
     e( 30 - 30) =      6.91381  eV     1   --> A''            
     e( 31 - 31) =      8.39120  eV     1   --> A'             
     e( 32 - 32) =      8.92242  eV     1   --> A'             
     e( 33 - 33) =     10.06326  eV     1   --> A'             
     e( 34 - 34) =     10.51643  eV     1   --> A''            
     e( 35 - 35) =     10.72664  eV     1   --> A'             
     e( 36 - 36) =     10.95315  eV     1   --> A'             
     e( 37 - 37) =     11.61595  eV     1   --> A''            
     e( 38 - 38) =     11.93595  eV     1   --> A'             
     e( 39 - 39) =     12.40497  eV     1   --> A'             
     e( 40 - 40) =     13.23167  eV     1   --> A''            
     e( 41 - 41) =     14.01665  eV     1   --> A'             
     e( 42 - 42) =     14.41558  eV     1   --> A''            

 **************************************************************************

 **************************************************************************

                    xk=(   0.28868,   0.00000,   0.00000  )

     Band symmetry, C_s (m)     point group:

     e(  1 -  1) =    -69.78602  eV     1   --> A'             
     e(  2 -  2) =    -69.18762  eV     1   --> A'             
     e(  3 -  3) =    -69.18709  eV     1   --> A'             
     e(  4 -  4) =    -36.53308  eV     1   --> A'             
     e(  5 -  6) =    -36.53015  eV     2   --> A'             
     e(  5 -  6) =    -36.53015  eV     2   --> A''            
     e(  7 -  7) =    -35.93601  eV     1   --> A''            
     e(  8 -  8) =    -35.93587  eV     1   --> A'             
     e(  9 -  9) =    -35.93350  eV     1   --> A'             
     e( 10 - 10) =    -35.93148  eV     1   --> A''            
     e( 11 - 11) =    -35.92977  eV     1   --> A'             
     e( 12 - 12) =    -35.92773  eV     1   --> A'             
     e( 13 - 13) =    -14.87450  eV     1   --> A'             
     e( 14 - 14) =    -14.87131  eV     1   --> A''            
     e( 15 - 15) =    -14.87043  eV     1   --> A'             
     e( 16 - 16) =    -14.86823  eV     1   --> A''            
     e( 17 - 17) =    -14.85450  eV     1   --> A'             
     e( 18 - 18) =    -14.85317  eV     1   --> A'             
     e( 19 - 20) =    -14.84180  eV     2   --> A'             
     e( 19 - 20) =    -14.84180  eV     2   --> A''            
     e( 21 - 21) =    -14.83440  eV     1   --> A'             
     e( 22 - 22) =    -14.83138  eV     1   --> A''            
     e( 23 - 23) =     -3.76753  eV     1   --> A'             
     e( 24 - 24) =     -3.08145  eV     1   --> A'             
     e( 25 - 25) =      3.06292  eV     1   --> A'             
     e( 26 - 26) =      3.97704  eV     1   --> A'             
     e( 27 - 27) =      4.67772  eV     1   --> A'             
     e( 28 - 28) =      5.57378  eV     1   --> A''            
     e( 29 - 29) =      6.69671  eV     1   --> A'             
     e( 30 - 30) =      6.86889  eV     1   --> A''            
     e( 31 - 31) =      8.24172  eV     1   --> A'             
     e( 32 - 32) =      8.96402  eV     1   --> A'             
     e( 33 - 33) =      9.99355  eV     1   --> A'             
     e( 34 - 34) =     10.45479  eV     1   --> A''            
     e( 35 - 35) =     10.82092  eV     1   --> A'             
     e( 36 - 36) =     11.16288  eV     1   --> A'             
     e( 37 - 37) =     11.82761  eV     1   --> A''            
     e( 38 - 38) =     11.99150  eV     1   --> A'             
     e( 39 - 39) =     12.63205  eV     1   --> A'             
     e( 40 - 40) =     13.48673  eV     1   --> A''            
     e( 41 - 41) =     14.31925  eV     1   --> A'             
     e( 42 - 42) =     14.68821  eV     1   -->   ?

 **************************************************************************

 **************************************************************************

                    xk=(   0.31754,   0.00000,   0.00000  )

     Band symmetry, C_s (m)     point group:

     e(  1 -  1) =    -69.78602  eV     1   --> A'             
     e(  2 -  2) =    -69.18760  eV     1   --> A'             
     e(  3 -  3) =    -69.18711  eV     1   --> A'             
     e(  4 -  4) =    -36.53308  eV     1   --> A'             
     e(  5 -  6) =    -36.53016  eV     2   --> A'             
     e(  5 -  6) =    -36.53016  eV     2   --> A''            
     e(  7 -  7) =    -35.93604  eV     1   --> A''            
     e(  8 -  8) =    -35.93587  eV     1   --> A'             
     e(  9 -  9) =    -35.93365  eV     1   --> A'             
     e( 10 - 10) =    -35.93146  eV     1   --> A''            
     e( 11 - 11) =    -35.92961  eV     1   --> A'             
     e( 12 - 12) =    -35.92775  eV     1   --> A'             
     e( 13 - 13) =    -14.87482  eV     1   --> A'             
     e( 14 - 14) =    -14.87118  eV     1   --> A''            
     e( 15 - 15) =    -14.87043  eV     1   --> A'             
     e( 16 - 16) =    -14.86784  eV     1   --> A''            
     e( 17 - 17) =    -14.85436  eV     1   --> A'             
     e( 18 - 18) =    -14.85292  eV     1   --> A'             
     e( 19 - 20) =    -14.84150  eV     2   --> A'             
     e( 19 - 20) =    -14.84150  eV     2   --> A''            
     e( 21 - 21) =    -14.83469  eV     1   --> A'             
     e( 22 - 22) =    -14.83116  eV     1   --> A''            
     e( 23 - 23) =     -3.71342  eV     1   --> A'             
     e( 24 - 24) =     -3.06624  eV     1   --> A'             
     e( 25 - 25) =      3.16300  eV     1   --> A'             
     e( 26 - 26) =      3.76361  eV     1   --> A'             
     e( 27 - 27) =      4.49659  eV     1   --> A'             
     e( 28 - 28) =      5.49260  eV     1   --> A''            
     e( 29 - 29) =      6.54018  eV     1   --> A'             
     e( 30 - 30) =      6.82248  eV     1   --> A''            
     e( 31 - 31) =      8.10321  eV     1   --> A'             
     e( 32 - 32) =      8.97464  eV     1   --> A'             
     e( 33 - 33) =      9.91426  eV     1   --> A'             
     e( 34 - 34) =     10.39049  eV     1   --> A''            
     e( 35 - 35) =     10.89305  eV     1   --> A'             
     e( 36 - 36) =     11.43797  eV     1   --> A'             
     e( 37 - 37) =     12.06505  eV     1   --> A'             
     e( 38 - 38) =     12.06735  eV     1   --> A''            
     e( 39 - 39) =     12.90888  eV     1   --> A'             
     e( 40 - 40) =     13.75410  eV     1   --> A''            
     e( 41 - 41) =     14.50299  eV     1   --> A'             
     e( 42 - 42) =     14.75651  eV     1   --> A'             

 **************************************************************************

 **************************************************************************

                    xk=(   0.34641,   0.00000,   0.00000  )

     Band symmetry, C_s (m)     point group:

     e(  1 -  1) =    -69.78602  eV     1   --> A'             
     e(  2 -  2) =    -69.18758  eV     1   --> A'             
     e(  3 -  3) =    -69.18713  eV     1   --> A'             
     e(  4 -  4) =    -36.53308  eV     1   --> A'             
     e(  5 -  6) =    -36.53016  eV     2   --> A'             
     e(  5 -  6) =    -36.53016  eV     2   --> A''            
     e(  7 -  7) =    -35.93607  eV     1   --> A''            
     e(  8 -  8) =    -35.93587  eV     1   --> A'             
     e(  9 -  9) =    -35.93379  eV     1   --> A'             
     e( 10 - 10) =    -35.93143  eV     1   --> A''            
     e( 11 - 11) =    -35.92945  eV     1   --> A'             
     e( 12 - 12) =    -35.92777  eV     1   --> A'             
     e( 13 - 13) =    -14.87512  eV     1   --> A'             
     e( 14 - 14) =    -14.87105  eV     1   --> A''            
     e( 15 - 15) =    -14.87042  eV     1   --> A'             
     e( 16 - 16) =    -14.86746  eV     1   --> A''            
     e( 17 - 17) =    -14.85424  eV     1   --> A'             
     e( 18 - 18) =    -14.85267  eV     1   --> A'             
     e( 19 - 19) =    -14.84123  eV     1   --> A''            
     e( 20 - 20) =    -14.84112  eV     1   --> A'             
     e( 21 - 21) =    -14.83500  eV     1   --> A'             
     e( 22 - 22) =    -14.83095  eV     1   --> A''            
     e( 23 - 23) =     -3.65751  eV     1   --> A'             
     e( 24 - 24) =     -3.05311  eV     1   --> A'             
     e( 25 - 25) =      3.26097  eV     1   --> A'             
     e( 26 - 26) =      3.57857  eV     1   --> A'             
     e( 27 - 27) =      4.32961  eV     1   --> A'             
     e( 28 - 28) =      5.41809  eV     1   --> A''            
     e( 29 - 29) =      6.37104  eV     1   --> A'             
     e( 30 - 30) =      6.77649  eV     1   --> A''            
     e( 31 - 31) =      7.97877  eV     1   --> A'             
     e( 32 - 32) =      8.96486  eV     1   --> A'             
     e( 33 - 33) =      9.83421  eV     1   --> A'             
     e( 34 - 34) =     10.32806  eV     1   --> A''            
     e( 35 - 35) =     10.98963  eV     1   --> A'             
     e( 36 - 36) =     11.67505  eV     1   --> A'             
     e( 37 - 37) =     12.20544  eV     1   --> A'             
     e( 38 - 38) =     12.32932  eV     1   --> A''            
     e( 39 - 39) =     13.21123  eV     1   --> A'             
     e( 40 - 40) =     14.02883  eV     1   --> A''            
     e( 41 - 41) =     14.37158  eV     1   --> A'             
     e( 42 - 42) =     14.71361  eV     1   --> A'             

 **************************************************************************

 **************************************************************************

                    xk=(   0.37528,   0.00000,   0.00000  )

     Band symmetry, C_s (m)     point group:

     e(  1 -  1) =    -69.78602  eV     1   --> A'             
     e(  2 -  2) =    -69.18757  eV     1   --> A'             
     e(  3 -  3) =    -69.18715  eV     1   --> A'             
     e(  4 -  4) =    -36.53308  eV     1   --> A'             
     e(  5 -  6) =    -36.53018  eV     2   --> A'             
     e(  5 -  6) =    -36.53018  eV     2   --> A''            
     e(  7 -  7) =    -35.93610  eV     1   --> A''            
     e(  8 -  8) =    -35.93588  eV     1   --> A'             
     e(  9 -  9) =    -35.93392  eV     1   --> A'             
     e( 10 - 10) =    -35.93140  eV     1   --> A''            
     e( 11 - 11) =    -35.92931  eV     1   --> A'             
     e( 12 - 12) =    -35.92781  eV     1   --> A'             
     e( 13 - 13) =    -14.87542  eV     1   --> A'             
     e( 14 - 14) =    -14.87095  eV     1   --> A''            
     e( 15 - 15) =    -14.87043  eV     1   --> A'             
     e( 16 - 16) =    -14.86710  eV     1   --> A''            
     e( 17 - 17) =    -14.85415  eV     1   --> A'             
     e( 18 - 18) =    -14.85242  eV     1   --> A'             
     e( 19 - 19) =    -14.84096  eV     1   --> A''            
     e( 20 - 20) =    -14.84076  eV     1   --> A'             
     e( 21 - 21) =    -14.83532  eV     1   --> A'             
     e( 22 - 22) =    -14.83075  eV     1   --> A''            
     e( 23 - 23) =     -3.60086  eV     1   --> A'             
     e( 24 - 24) =     -3.04281  eV     1   --> A'             
     e( 25 - 25) =      3.29455  eV     1   --> A'             
     e( 26 - 26) =      3.48441  eV     1   --> A'             
     e( 27 - 27) =      4.17849  eV     1   --> A'             
     e( 28 - 28) =      5.35096  eV     1   --> A''            
     e( 29 - 29) =      6.19299  eV     1   --> A'             
     e( 30 - 30) =      6.73254  eV     1   --> A''            
     e( 31 - 31) =      7.86953  eV     1   --> A'             
     e( 32 - 32) =      8.94368  eV     1   --> A'             
     e( 33 - 33) =      9.75845  eV     1   --> A'             
     e( 34 - 34) =     10.27003  eV     1   --> A''            
     e( 35 - 35) =     11.10790  eV     1   --> A'             
     e( 36 - 36) =     11.83157  eV     1   --> A'             
     e( 37 - 37) =     12.44669  eV     1   --> A'             
     e( 38 - 38) =     12.60926  eV     1   --> A''            
     e( 39 - 39) =     13.51259  eV     1   --> A'             
     e( 40 - 40) =     14.15673  eV     1   --> A'             
     e( 41 - 41) =     14.30464  eV     1   --> A''            
     e( 42 - 42) =     14.61147  eV     1   --> A'             

 **************************************************************************

 **************************************************************************

                    xk=(   0.40415,   0.00000,   0.00000  )

     Band symmetry, C_s (m)     point group:

     e(  1 -  1) =    -69.78602  eV     1   --> A'             
     e(  2 -  2) =    -69.18755  eV     1   --> A'             
     e(  3 -  3) =    -69.18716  eV     1   --> A'             
     e(  4 -  4) =    -36.53308  eV     1   --> A'             
     e(  5 -  6) =    -36.53019  eV     2   --> A'             
     e(  5 -  6) =    -36.53019  eV     2   --> A''            
     e(  7 -  7) =    -35.93613  eV     1   --> A''            
     e(  8 -  8) =    -35.93589  eV     1   --> A'             
     e(  9 -  9) =    -35.93403  eV     1   --> A'             
     e( 10 - 10) =    -35.93138  eV     1   --> A''            
     e( 11 - 11) =    -35.92917  eV     1   --> A'             
     e( 12 - 12) =    -35.92784  eV     1   --> A'             
     e( 13 - 13) =    -14.87569  eV     1   --> A'             
     e( 14 - 14) =    -14.87086  eV     1   --> A''            
     e( 15 - 15) =    -14.87043  eV     1   --> A'             
     e( 16 - 16) =    -14.86677  eV     1   --> A''            
     e( 17 - 17) =    -14.85407  eV     1   --> A'             
     e( 18 - 18) =    -14.85219  eV     1   --> A'             
     e( 19 - 19) =    -14.84071  eV     1   --> A''            
     e( 20 - 20) =    -14.84038  eV     1   --> A'             
     e( 21 - 21) =    -14.83564  eV     1   --> A'             
     e( 22 - 22) =    -14.83057  eV     1   --> A''            
     e( 23 - 23) =     -3.54472  eV     1   --> A'             
     e( 24 - 24) =     -3.03594  eV     1   --> A'             
     e( 25 - 25) =      3.18461  eV     1   --> A'             
     e( 26 - 26) =      3.55940  eV     1   --> A'             
     e( 27 - 27) =      4.04551  eV     1   --> A'             
     e( 28 - 28) =      5.29178  eV     1   --> A''            
     e( 29 - 29) =      6.01025  eV     1   --> A'             
     e( 30 - 30) =      6.69200  eV     1   --> A''            
     e( 31 - 31) =      7.77569  eV     1   --> A'             
     e( 32 - 32) =      8.91765  eV     1   --> A'             
     e( 33 - 33) =      9.69012  eV     1   --> A'             
     e( 34 - 34) =     10.21800  eV     1   --> A''            
     e( 35 - 35) =     11.24177  eV     1   --> A'             
     e( 36 - 36) =     11.93296  eV     1   --> A'             
     e( 37 - 37) =     12.75804  eV     1   --> A'             
     e( 38 - 38) =     12.90376  eV     1   --> A''            
     e( 39 - 39) =     13.73404  eV     1   --> A'             
     e( 40 - 40) =     13.97120  eV     1   --> A'             
     e( 41 - 41) =     14.54189  eV     1   --> A'             
     e( 42 - 42) =     14.57197  eV     1   --> A''            

 **************************************************************************

 **************************************************************************

                    xk=(   0.43301,   0.00000,   0.00000  )

     Band symmetry, C_s (m)     point group:

     e(  1 -  1) =    -69.78602  eV     1   --> A'             
     e(  2 -  2) =    -69.18753  eV     1   --> A'             
     e(  3 -  3) =    -69.18718  eV     1   --> A'             
     e(  4 -  4) =    -36.53308  eV     1   --> A'             
     e(  5 -  6) =    -36.53019  eV     2   --> A'             
     e(  5 -  6) =    -36.53019  eV     2   --> A''            
     e(  7 -  7) =    -35.93615  eV     1   --> A''            
     e(  8 -  8) =    -35.93589  eV     1   --> A'             
     e(  9 -  9) =    -35.93413  eV     1   --> A'             
     e( 10 - 10) =    -35.93136  eV     1   --> A''            
     e( 11 - 11) =    -35.92905  eV     1   --> A'             
     e( 12 - 12) =    -35.92788  eV     1   --> A'             
     e( 13 - 13) =    -14.87593  eV     1   --> A'             
     e( 14 - 14) =    -14.87078  eV     1   --> A''            
     e( 15 - 15) =    -14.87045  eV     1   --> A'             
     e( 16 - 16) =    -14.86648  eV     1   --> A''            
     e( 17 - 17) =    -14.85401  eV     1   --> A'             
     e( 18 - 18) =    -14.85197  eV     1   --> A'             
     e( 19 - 19) =    -14.84049  eV     1   --> A''            
     e( 20 - 20) =    -14.84001  eV     1   --> A'             
     e( 21 - 21) =    -14.83595  eV     1   --> A'             
     e( 22 - 22) =    -14.83040  eV     1   --> A''            
     e( 23 - 23) =     -3.49056  eV     1   --> A'             
     e( 24 - 24) =     -3.03288  eV     1   --> A'             
     e( 25 - 25) =      3.05779  eV     1   --> A'             
     e( 26 - 26) =      3.67248  eV     1   --> A'             
     e( 27 - 27) =      3.93574  eV     1   --> A'             
     e( 28 - 28) =      5.24103  eV     1   --> A''            
     e( 29 - 29) =      5.82751  eV     1   --> A'             
     e( 30 - 30) =      6.65600  eV     1   --> A''            
     e( 31 - 31) =      7.69701  eV     1   --> A'             
     e( 32 - 32) =      8.89108  eV     1   --> A'             
     e( 33 - 33) =      9.63101  eV     1   --> A'             
     e( 34 - 34) =     10.17292  eV     1   --> A''            
     e( 35 - 35) =     11.38629  eV     1   --> A'             
     e( 36 - 36) =     12.01339  eV     1   --> A'             
     e( 37 - 37) =     13.09500  eV     1   --> A'             
     e( 38 - 38) =     13.20955  eV     1   --> A''            
     e( 39 - 39) =     13.64684  eV     1   --> A'             
     e( 40 - 40) =     13.95757  eV     1   --> A'             
     e( 41 - 41) =     14.62227  eV     1   --> A'             
     e( 42 - 42) =     14.81485  eV     1   --> A''            

 **************************************************************************

 **************************************************************************

                    xk=(   0.46188,   0.00000,   0.00000  )

     Band symmetry, C_s (m)     point group:

     e(  1 -  1) =    -69.78602  eV     1   --> A'             
     e(  2 -  2) =    -69.18751  eV     1   --> A'             
     e(  3 -  3) =    -69.18720  eV     1   --> A'             
     e(  4 -  4) =    -36.53308  eV     1   --> A'             
     e(  5 -  6) =    -36.53020  eV     2   --> A'             
     e(  5 -  6) =    -36.53020  eV     2   --> A''            
     e(  7 -  7) =    -35.93617  eV     1   --> A''            
     e(  8 -  8) =    -35.93589  eV     1   --> A'             
     e(  9 -  9) =    -35.93421  eV     1   --> A'             
     e( 10 - 10) =    -35.93134  eV     1   --> A''            
     e( 11 - 11) =    -35.92894  eV     1   --> A'             
     e( 12 - 12) =    -35.92792  eV     1   --> A'             
     e( 13 - 13) =    -14.87613  eV     1   --> A'             
     e( 14 - 14) =    -14.87072  eV     1   --> A''            
     e( 15 - 15) =    -14.87045  eV     1   --> A'             
     e( 16 - 16) =    -14.86623  eV     1   --> A''            
     e( 17 - 17) =    -14.85397  eV     1   --> A'             
     e( 18 - 18) =    -14.85178  eV     1   --> A'             
     e( 19 - 19) =    -14.84029  eV     1   --> A''            
     e( 20 - 20) =    -14.83964  eV     1   --> A'             
     e( 21 - 21) =    -14.83626  eV     1   --> A'             
     e( 22 - 22) =    -14.83025  eV     1   --> A''            
     e( 23 - 23) =     -3.44014  eV     1   --> A'             
     e( 24 - 24) =     -3.03363  eV     1   --> A'             
     e( 25 - 25) =      2.94800  eV     1   --> A'             
     e( 26 - 26) =      3.75523  eV     1   --> A'             
     e( 27 - 27) =      3.88286  eV     1   --> A'             
     e( 28 - 28) =      5.19907  eV     1   --> A''            
     e( 29 - 29) =      5.65024  eV     1   --> A'             
     e( 30 - 30) =      6.62544  eV     1   --> A''            
     e( 31 - 31) =      7.63316  eV     1   --> A'             
     e( 32 - 32) =      8.86675  eV     1   --> A'             
     e( 33 - 33) =      9.58208  eV     1   --> A'             
     e( 34 - 34) =     10.13543  eV     1   --> A''            
     e( 35 - 35) =     11.53766  eV     1   --> A'             
     e( 36 - 36) =     12.08389  eV     1   --> A'             
     e( 37 - 37) =     13.41159  eV     1   --> A'             
     e( 38 - 38) =     13.45270  eV     1   --> A'             
     e( 39 - 39) =     13.52314  eV     1   --> A''            
     e( 40 - 40) =     13.93920  eV     1   --> A'             
     e( 41 - 41) =     14.85813  eV     1   --> A'             
     e( 42 - 42) =     15.00660  eV     1   --> A''            

 **************************************************************************

 **************************************************************************

                    xk=(   0.49075,   0.00000,   0.00000  )

     Band symmetry, C_s (m)     point group:

     e(  1 -  1) =    -69.78602  eV     1   --> A'             
     e(  2 -  2) =    -69.18750  eV     1   --> A'             
     e(  3 -  3) =    -69.18722  eV     1   --> A'             
     e(  4 -  4) =    -36.53308  eV     1   --> A'             
     e(  5 -  6) =    -36.53021  eV     2   --> A'             
     e(  5 -  6) =    -36.53021  eV     2   --> A''            
     e(  7 -  7) =    -35.93619  eV     1   --> A''            
     e(  8 -  8) =    -35.93590  eV     1   --> A'             
     e(  9 -  9) =    -35.93428  eV     1   --> A'             
     e( 10 - 10) =    -35.93133  eV     1   --> A''            
     e( 11 - 11) =    -35.92884  eV     1   --> A'             
     e( 12 - 12) =    -35.92796  eV     1   --> A'             
     e( 13 - 13) =    -14.87630  eV     1   --> A'             
     e( 14 - 14) =    -14.87067  eV     1   --> A''            
     e( 15 - 15) =    -14.87046  eV     1   --> A'             
     e( 16 - 16) =    -14.86604  eV     1   --> A''            
     e( 17 - 17) =    -14.85394  eV     1   --> A'             
     e( 18 - 18) =    -14.85164  eV     1   --> A'             
     e( 19 - 19) =    -14.84013  eV     1   --> A''            
     e( 20 - 20) =    -14.83930  eV     1   --> A'             
     e( 21 - 21) =    -14.83657  eV     1   --> A'             
     e( 22 - 22) =    -14.83013  eV     1   --> A''            
     e( 23 - 23) =     -3.39566  eV     1   --> A'             
     e( 24 - 24) =     -3.03759  eV     1   --> A'             
     e( 25 - 25) =      2.86049  eV     1   --> A'             
     e( 26 - 26) =      3.72429  eV     1   --> A'             
     e( 27 - 27) =      3.96158  eV     1   --> A'             
     e( 28 - 28) =      5.16616  eV     1   --> A''            
     e( 29 - 29) =      5.48569  eV     1   --> A'             
     e( 30 - 30) =      6.60098  eV     1   --> A''            
     e( 31 - 31) =      7.58381  eV     1   --> A'             
     e( 32 - 32) =      8.84640  eV     1   --> A'             
     e( 33 - 33) =      9.54378  eV     1   --> A'             
     e( 34 - 34) =     10.10591  eV     1   --> A''            
     e( 35 - 35) =     11.69193  eV     1   --> A'             
     e( 36 - 36) =     12.14152  eV     1   --> A'             
     e( 37 - 37) =     13.26529  eV     1   --> A'             
     e( 38 - 38) =     13.57819  eV     1   --> A'             
     e( 39 - 39) =     13.84017  eV     1   --> A''            
     e( 40 - 40) =     14.04042  eV     1   --> A'             
     e( 41 - 41) =     15.10928  eV     1   --> A''            
     e( 42 - 42) =     15.11676  eV     1   --> A'             

 **************************************************************************

 **************************************************************************

                    xk=(   0.51962,   0.00000,   0.00000  )

     Band symmetry, C_s (m)     point group:

     e(  1 -  1) =    -69.78602  eV     1   --> A'             
     e(  2 -  2) =    -69.18749  eV     1   --> A'             
     e(  3 -  3) =    -69.18723  eV     1   --> A'             
     e(  4 -  4) =    -36.53308  eV     1   --> A'             
     e(  5 -  6) =    -36.53021  eV     2   --> A'             
     e(  5 -  6) =    -36.53021  eV     2   --> A''            
     e(  7 -  7) =    -35.93620  eV     1   --> A''            
     e(  8 -  8) =    -35.93590  eV     1   --> A'             
     e(  9 -  9) =    -35.93433  eV     1   --> A'             
     e( 10 - 10) =    -35.93132  eV     1   --> A''            
     e( 11 - 11) =    -35.92877  eV     1   --> A'             
     e( 12 - 12) =    -35.92799  eV     1   --> A'             
     e( 13 - 13) =    -14.87643  eV     1   --> A'             
     e( 14 - 14) =    -14.87064  eV     1   --> A''            
     e( 15 - 15) =    -14.87047  eV     1   --> A'             
     e( 16 - 16) =    -14.86590  eV     1   --> A''            
     e( 17 - 17) =    -14.85392  eV     1   --> A'             
     e( 18 - 18) =    -14.85153  eV     1   --> A'             
     e( 19 - 19) =    -14.84002  eV     1   --> A''            
     e( 20 - 20) =    -14.83900  eV     1   --> A'             
     e( 21 - 21) =    -14.83684  eV     1   --> A'             
     e( 22 - 22) =    -14.83005  eV     1   --> A''            
     e( 23 - 23) =     -3.35991  eV     1   --> A'             
     e( 24 - 24) =     -3.04336  eV     1   --> A'             
     e( 25 - 25) =      2.79709  eV     1   --> A'             
     e( 26 - 26) =      3.67572  eV     1   --> A'             
     e( 27 - 27) =      4.06618  eV     1   --> A'             
     e( 28 - 28) =      5.14249  eV     1   --> A''            
     e( 29 - 29) =      5.34491  eV     1   --> A'             
     e( 30 - 30) =      6.58316  eV     1   --> A''            
     e( 31 - 31) =      7.54872  eV     1   --> A'             
     e( 32 - 32) =      8.83118  eV     1   --> A'             
     e( 33 - 33) =      9.51636  eV     1   --> A'             
     e( 34 - 34) =     10.08468  eV     1   --> A''            
     e( 35 - 35) =     11.84369  eV     1   --> A'             
     e( 36 - 36) =     12.17399  eV     1   --> A'             
     e( 37 - 37) =     13.11121  eV     1   --> A'             
     e( 38 - 38) =     13.54917  eV     1   --> A'             
     e( 39 - 39) =     14.15443  eV     1   --> A''            
     e( 40 - 40) =     14.34076  eV     1   --> A'             
     e( 41 - 41) =     15.09143  eV     1   --> A''            
     e( 42 - 42) =     15.28585  eV     1   --> A'             

 **************************************************************************

 **************************************************************************

                    xk=(   0.54848,   0.00000,   0.00000  )

     Band symmetry, C_s (m)     point group:

     e(  1 -  1) =    -69.78602  eV     1   --> A'             
     e(  2 -  2) =    -69.18748  eV     1   --> A'             
     e(  3 -  3) =    -69.18724  eV     1   --> A'             
     e(  4 -  4) =    -36.53308  eV     1   --> A'             
     e(  5 -  6) =    -36.53021  eV     2   --> A'             
     e(  5 -  6) =    -36.53021  eV     2   --> A''            
     e(  7 -  7) =    -35.93621  eV     1   --> A''            
     e(  8 -  8) =    -35.93590  eV     1   --> A'             
     e(  9 -  9) =    -35.93436  eV     1   --> A'             
     e( 10 - 10) =    -35.93131  eV     1   --> A''            
     e( 11 - 11) =    -35.92872  eV     1   --> A'             
     e( 12 - 12) =    -35.92802  eV     1   --> A'             
     e( 13 - 13) =    -14.87650  eV     1   --> A'             
     e( 14 - 14) =    -14.87062  eV     1   --> A''            
     e( 15 - 15) =    -14.87048  eV     1   --> A'             
     e( 16 - 16) =    -14.86580  eV     1   --> A''            
     e( 17 - 17) =    -14.85391  eV     1   --> A'             
     e( 18 - 18) =    -14.85147  eV     1   --> A'             
     e( 19 - 19) =    -14.83994  eV     1   --> A''            
     e( 20 - 20) =    -14.83877  eV     1   --> A'             
     e( 21 - 21) =    -14.83706  eV     1   --> A'             
     e( 22 - 22) =    -14.82999  eV     1   --> A''            
     e( 23 - 23) =     -3.33625  eV     1   --> A'             
     e( 24 - 24) =     -3.04860  eV     1   --> A'             
     e( 25 - 25) =      2.75874  eV     1   --> A'             
     e( 26 - 26) =      3.64399  eV     1   --> A'             
     e( 27 - 27) =      4.14628  eV     1   --> A'             
     e( 28 - 28) =      5.12827  eV     1   --> A''            
     e( 29 - 29) =      5.24511  eV     1   --> A'             
     e( 30 - 30) =      6.57234  eV     1   --> A''            
     e( 31 - 31) =      7.52772  eV     1   --> A'             
     e( 32 - 32) =      8.82179  eV     1   --> A'             
     e( 33 - 33) =      9.49989  eV     1   --> A'             
     e( 34 - 34) =     10.07187  eV     1   --> A''            
     e( 35 - 35) =     11.98366  eV     1   --> A'             
     e( 36 - 36) =     12.16298  eV     1   --> A'             
     e( 37 - 37) =     13.00774  eV     1   --> A'             
     e( 38 - 38) =     13.49456  eV     1   --> A'             
     e( 39 - 39) =     14.45650  eV     1   --> A''            
     e( 40 - 40) =     14.68004  eV     1   --> A'             
     e( 41 - 41) =     14.95540  eV     1   --> A''            
     e( 42 - 42) =     15.26475  eV     1   --> A'             

 **************************************************************************

 **************************************************************************

                    xk=(   0.57735,   0.00000,   0.00000  )

     point group C_2h (2/m) 
     there are  4 classes
     the character table:

       E     C2    i     s_h  
A_g    1.00  1.00  1.00  1.00
B_g    1.00 -1.00  1.00 -1.00
A_u    1.00  1.00 -1.00 -1.00
B_u    1.00 -1.00 -1.00  1.00

     the symmetry operations in each class and the name of the first element:

     E        1
                                                                 
     C2       2
                                                                 
     i        3
                                                                 
     s_h      4
                                                                 

     Band symmetry, C_2h (2/m)  point group:

     e(  1 -  1) =    -69.78602  eV     1   --> A_g            
     e(  2 -  2) =    -69.18748  eV     1   --> B_u            
     e(  3 -  3) =    -69.18724  eV     1   --> A_g            
     e(  4 -  4) =    -36.53308  eV     1   --> B_u            
     e(  5 -  6) =    -36.53021  eV     2   --> A_u            
     e(  5 -  6) =    -36.53021  eV     2   --> B_u            
     e(  7 -  7) =    -35.93621  eV     1   --> A_u            
     e(  8 -  8) =    -35.93589  eV     1   --> A_g            
     e(  9 -  9) =    -35.93437  eV     1   --> B_u            
     e( 10 - 10) =    -35.93131  eV     1   --> B_g            
     e( 11 - 11) =    -35.92870  eV     1   --> B_u            
     e( 12 - 12) =    -35.92803  eV     1   --> A_g            
     e( 13 - 13) =    -14.87653  eV     1   --> A_g            
     e( 14 - 14) =    -14.87061  eV     1   --> A_u            
     e( 15 - 15) =    -14.87048  eV     1   --> B_u            
     e( 16 - 16) =    -14.86577  eV     1   --> B_g            
     e( 17 - 17) =    -14.85391  eV     1   --> A_g            
     e( 18 - 18) =    -14.85144  eV     1   --> B_u            
     e( 19 - 19) =    -14.83992  eV     1   --> A_u            
     e( 20 - 20) =    -14.83867  eV     1   --> A_g            
     e( 21 - 21) =    -14.83714  eV     1   --> B_u            
     e( 22 - 22) =    -14.82998  eV     1   --> B_g            
     e( 23 - 23) =     -3.32789  eV     1   --> B_u            
     e( 24 - 24) =     -3.05074  eV     1   --> A_g            
     e( 25 - 25) =      2.74590  eV     1   --> A_g            
     e( 26 - 26) =      3.63317  eV     1   --> B_u            
     e( 27 - 27) =      4.17696  eV     1   --> B_u            
     e( 28 - 28) =      5.12349  eV     1   --> A_u            
     e( 29 - 29) =      5.20803  eV     1   --> A_g            
     e( 30 - 30) =      6.56870  eV     1   --> B_g            
     e( 31 - 31) =      7.52074  eV     1   --> A_g            
     e( 32 - 32) =      8.81863  eV     1   --> B_u            
     e( 33 - 33) =      9.49441  eV     1   --> A_g            
     e( 34 - 34) =     10.06757  eV     1   --> A_u            
     e( 35 - 35) =     12.09222  eV     1   --> B_u            
     e( 36 - 36) =     12.10103  eV     1   --> A_g            
     e( 37 - 37) =     12.97141  eV     1   --> B_u            
     e( 38 - 38) =     13.47216  eV     1   --> A_g            
     e( 39 - 39) =     14.71586  eV     1   --> A_u            
     e( 40 - 40) =     14.74798  eV     1   --> B_g            
     e( 41 - 41) =     14.91863  eV     1   --> A_g            
     e( 42 - 42) =     15.12324  eV     1   --> B_u            

 **************************************************************************

 **************************************************************************

                    xk=(   0.57732,   0.01665,   0.00000  )

     point group C_1 (1)    
     there are  1 classes
     the character table:

       E    
A      1.00

     the symmetry operations in each class and the name of the first element:

     E        1
                                                                 

     Band symmetry, C_1 (1)     point group:

     e(  1 -  1) =    -69.78602  eV     1   --> A              
     e(  2 -  2) =    -69.18748  eV     1   --> A              
     e(  3 -  3) =    -69.18724  eV     1   --> A              
     e(  4 -  4) =    -36.53308  eV     1   --> A              
     e(  5 -  6) =    -36.53021  eV     2   -->   2 A              
     e(  7 -  7) =    -35.93622  eV     1   --> A              
     e(  8 -  8) =    -35.93589  eV     1   --> A              
     e(  9 -  9) =    -35.93437  eV     1   --> A              
     e( 10 - 10) =    -35.93131  eV     1   --> A              
     e( 11 - 11) =    -35.92870  eV     1   --> A              
     e( 12 - 12) =    -35.92803  eV     1   --> A              
     e( 13 - 13) =    -14.87651  eV     1   --> A              
     e( 14 - 14) =    -14.87061  eV     1   --> A              
     e( 15 - 15) =    -14.87048  eV     1   --> A              
     e( 16 - 16) =    -14.86578  eV     1   --> A              
     e( 17 - 17) =    -14.85390  eV     1   --> A              
     e( 18 - 18) =    -14.85144  eV     1   --> A              
     e( 19 - 19) =    -14.83994  eV     1   --> A              
     e( 20 - 20) =    -14.83864  eV     1   --> A              
     e( 21 - 21) =    -14.83713  eV     1   --> A              
     e( 22 - 22) =    -14.82998  eV     1   --> A              
     e( 23 - 23) =     -3.32723  eV     1   --> A              
     e( 24 - 24) =     -3.05074  eV     1   --> A              
     e( 25 - 25) =      2.74747  eV     1   --> A              
     e( 26 - 26) =      3.63434  eV     1   --> A              
     e( 27 - 27) =      4.17865  eV     1   --> A              
     e( 28 - 28) =      5.10591  eV     1   --> A              
     e( 29 - 29) =      5.21295  eV     1   --> A              
     e( 30 - 30) =      6.55283  eV     1   --> A              
     e( 31 - 31) =      7.53630  eV     1   --> A              
     e( 32 - 32) =      8.83889  eV     1   --> A              
     e( 33 - 33) =      9.46119  eV     1   --> A              
     e( 34 - 34) =     10.10309  eV     1   --> A              
     e( 35 - 35) =     12.09408  eV     1   --> A              
     e( 36 - 36) =     12.10513  eV     1   --> A              
     e( 37 - 37) =     12.97039  eV     1   --> A              
     e( 38 - 38) =     13.47437  eV     1   --> A              
     e( 39 - 39) =     14.64115  eV     1   --> A              
     e( 40 - 40) =     14.69357  eV     1   --> A              
     e( 41 - 41) =     14.97527  eV     1   --> A              
     e( 42 - 42) =     15.16532  eV     1   --> A              

 **************************************************************************

 **************************************************************************

                    xk=(   0.57729,   0.03330,   0.00000  )

     Band symmetry, C_1 (1)     point group:

     e(  1 -  1) =    -69.78602  eV     1   --> A              
     e(  2 -  2) =    -69.18748  eV     1   --> A              
     e(  3 -  3) =    -69.18724  eV     1   --> A              
     e(  4 -  4) =    -36.53308  eV     1   --> A              
     e(  5 -  6) =    -36.53021  eV     2   -->   2 A              
     e(  7 -  7) =    -35.93622  eV     1   --> A              
     e(  8 -  8) =    -35.93588  eV     1   --> A              
     e(  9 -  9) =    -35.93438  eV     1   --> A              
     e( 10 - 10) =    -35.93131  eV     1   --> A              
     e( 11 - 11) =    -35.92870  eV     1   --> A              
     e( 12 - 12) =    -35.92803  eV     1   --> A              
     e( 13 - 13) =    -14.87648  eV     1   --> A              
     e( 14 - 14) =    -14.87063  eV     1   --> A              
     e( 15 - 15) =    -14.87046  eV     1   --> A              
     e( 16 - 16) =    -14.86579  eV     1   --> A              
     e( 17 - 17) =    -14.85388  eV     1   --> A              
     e( 18 - 18) =    -14.85144  eV     1   --> A              
     e( 19 - 19) =    -14.84003  eV     1   --> A              
     e( 20 - 20) =    -14.83856  eV     1   --> A              
     e( 21 - 21) =    -14.83711  eV     1   --> A              
     e( 22 - 22) =    -14.83000  eV     1   --> A              
     e( 23 - 23) =     -3.32526  eV     1   --> A              
     e( 24 - 24) =     -3.05072  eV     1   --> A              
     e( 25 - 25) =      2.75215  eV     1   --> A              
     e( 26 - 26) =      3.63785  eV     1   --> A              
     e( 27 - 27) =      4.18376  eV     1   --> A              
     e( 28 - 28) =      5.06071  eV     1   --> A              
     e( 29 - 29) =      5.22123  eV     1   --> A              
     e( 30 - 30) =      6.50698  eV     1   --> A              
     e( 31 - 31) =      7.58148  eV     1   --> A              
     e( 32 - 32) =      8.89789  eV     1   --> A              
     e( 33 - 33) =      9.38013  eV     1   --> A              
     e( 34 - 34) =     10.19128  eV     1   --> A              
     e( 35 - 35) =     12.09972  eV     1   --> A              
     e( 36 - 36) =     12.11746  eV     1   --> A              
     e( 37 - 37) =     12.96712  eV     1   --> A              
     e( 38 - 38) =     13.48093  eV     1   --> A              
     e( 39 - 39) =     14.50240  eV     1   --> A              
     e( 40 - 40) =     14.57363  eV     1   --> A              
     e( 41 - 41) =     15.05855  eV     1   --> A              
     e( 42 - 42) =     15.24451  eV     1   --> A              

 **************************************************************************

 **************************************************************************

                    xk=(   0.57726,   0.04995,   0.00000  )

     Band symmetry, C_1 (1)     point group:

     e(  1 -  1) =    -69.78602  eV     1   --> A              
     e(  2 -  2) =    -69.18747  eV     1   --> A              
     e(  3 -  3) =    -69.18724  eV     1   --> A              
     e(  4 -  4) =    -36.53308  eV     1   --> A              
     e(  5 -  6) =    -36.53021  eV     2   -->   2 A              
     e(  7 -  7) =    -35.93624  eV     1   --> A              
     e(  8 -  8) =    -35.93586  eV     1   --> A              
     e(  9 -  9) =    -35.93439  eV     1   --> A              
     e( 10 - 10) =    -35.93130  eV     1   --> A              
     e( 11 - 11) =    -35.92869  eV     1   --> A              
     e( 12 - 12) =    -35.92803  eV     1   --> A              
     e( 13 - 13) =    -14.87643  eV     1   --> A              
     e( 14 - 14) =    -14.87065  eV     1   --> A              
     e( 15 - 15) =    -14.87044  eV     1   --> A              
     e( 16 - 16) =    -14.86582  eV     1   --> A              
     e( 17 - 17) =    -14.85384  eV     1   --> A              
     e( 18 - 18) =    -14.85145  eV     1   --> A              
     e( 19 - 19) =    -14.84016  eV     1   --> A              
     e( 20 - 20) =    -14.83845  eV     1   --> A              
     e( 21 - 21) =    -14.83708  eV     1   --> A              
     e( 22 - 22) =    -14.83004  eV     1   --> A              
     e( 23 - 23) =     -3.32201  eV     1   --> A              
     e( 24 - 24) =     -3.05073  eV     1   --> A              
     e( 25 - 25) =      2.75992  eV     1   --> A              
     e( 26 - 26) =      3.64365  eV     1   --> A              
     e( 27 - 27) =      4.19227  eV     1   --> A              
     e( 28 - 28) =      4.99612  eV     1   --> A              
     e( 29 - 29) =      5.22758  eV     1   --> A              
     e( 30 - 30) =      6.43571  eV     1   --> A              
     e( 31 - 31) =      7.65196  eV     1   --> A              
     e( 32 - 32) =      8.99103  eV     1   --> A              
     e( 33 - 33) =      9.27945  eV     1   --> A              
     e( 34 - 34) =     10.30500  eV     1   --> A              
     e( 35 - 35) =     12.10912  eV     1   --> A              
     e( 36 - 36) =     12.13809  eV     1   --> A              
     e( 37 - 37) =     12.96129  eV     1   --> A              
     e( 38 - 38) =     13.49169  eV     1   --> A              
     e( 39 - 39) =     14.34671  eV     1   --> A              
     e( 40 - 40) =     14.43098  eV     1   --> A              
     e( 41 - 41) =     15.11893  eV     1   --> A              
     e( 42 - 42) =     15.30632  eV     1   --> A              

 **************************************************************************

 **************************************************************************

                    xk=(   0.57723,   0.06660,   0.00000  )

     Band symmetry, C_1 (1)     point group:

     e(  1 -  1) =    -69.78602  eV     1   --> A              
     e(  2 -  2) =    -69.18747  eV     1   --> A              
     e(  3 -  3) =    -69.18724  eV     1   --> A              
     e(  4 -  4) =    -36.53308  eV     1   --> A              
     e(  5 -  6) =    -36.53021  eV     2   -->   2 A              
     e(  7 -  7) =    -35.93625  eV     1   --> A              
     e(  8 -  8) =    -35.93583  eV     1   --> A              
     e(  9 -  9) =    -35.93441  eV     1   --> A              
     e( 10 - 10) =    -35.93129  eV     1   --> A              
     e( 11 - 11) =    -35.92868  eV     1   --> A              
     e( 12 - 12) =    -35.92803  eV     1   --> A              
     e( 13 - 13) =    -14.87634  eV     1   --> A              
     e( 14 - 14) =    -14.87067  eV     1   --> A              
     e( 15 - 15) =    -14.87041  eV     1   --> A              
     e( 16 - 16) =    -14.86585  eV     1   --> A              
     e( 17 - 17) =    -14.85379  eV     1   --> A              
     e( 18 - 18) =    -14.85146  eV     1   --> A              
     e( 19 - 19) =    -14.84030  eV     1   --> A              
     e( 20 - 20) =    -14.83831  eV     1   --> A              
     e( 21 - 21) =    -14.83702  eV     1   --> A              
     e( 22 - 22) =    -14.83010  eV     1   --> A              
     e( 23 - 23) =     -3.31748  eV     1   --> A              
     e( 24 - 24) =     -3.05078  eV     1   --> A              
     e( 25 - 25) =      2.77074  eV     1   --> A              
     e( 26 - 26) =      3.65167  eV     1   --> A              
     e( 27 - 27) =      4.20417  eV     1   --> A              
     e( 28 - 28) =      4.91673  eV     1   --> A              
     e( 29 - 29) =      5.23139  eV     1   --> A              
     e( 30 - 30) =      6.34482  eV     1   --> A              
     e( 31 - 31) =      7.74103  eV     1   --> A              
     e( 32 - 32) =      9.11242  eV     1   --> A              
     e( 33 - 33) =      9.17698  eV     1   --> A              
     e( 34 - 34) =     10.42867  eV     1   --> A              
     e( 35 - 35) =     12.12232  eV     1   --> A              
     e( 36 - 36) =     12.16708  eV     1   --> A              
     e( 37 - 37) =     12.95228  eV     1   --> A              
     e( 38 - 38) =     13.50613  eV     1   --> A              
     e( 39 - 39) =     14.18459  eV     1   --> A              
     e( 40 - 40) =     14.28110  eV     1   --> A              
     e( 41 - 41) =     15.14547  eV     1   --> A              
     e( 42 - 42) =     15.31735  eV     1   --> A              

 **************************************************************************

 **************************************************************************

                    xk=(   0.57721,   0.08325,   0.00000  )

     Band symmetry, C_1 (1)     point group:

     e(  1 -  1) =    -69.78602  eV     1   --> A              
     e(  2 -  2) =    -69.18747  eV     1   --> A              
     e(  3 -  3) =    -69.18725  eV     1   --> A              
     e(  4 -  4) =    -36.53308  eV     1   --> A              
     e(  5 -  6) =    -36.53021  eV     2   -->   2 A              
     e(  7 -  7) =    -35.93627  eV     1   --> A              
     e(  8 -  8) =    -35.93581  eV     1   --> A              
     e(  9 -  9) =    -35.93444  eV     1   --> A              
     e( 10 - 10) =    -35.93129  eV     1   --> A              
     e( 11 - 11) =    -35.92867  eV     1   --> A              
     e( 12 - 12) =    -35.92804  eV     1   --> A              
     e( 13 - 13) =    -14.87625  eV     1   --> A              
     e( 14 - 14) =    -14.87072  eV     1   --> A              
     e( 15 - 15) =    -14.87038  eV     1   --> A              
     e( 16 - 16) =    -14.86589  eV     1   --> A              
     e( 17 - 17) =    -14.85372  eV     1   --> A              
     e( 18 - 18) =    -14.85147  eV     1   --> A              
     e( 19 - 19) =    -14.84047  eV     1   --> A              
     e( 20 - 20) =    -14.83817  eV     1   --> A              
     e( 21 - 21) =    -14.83697  eV     1   --> A              
     e( 22 - 22) =    -14.83017  eV     1   --> A              
     e( 23 - 23) =     -3.31171  eV     1   --> A              
     e( 24 - 24) =     -3.05093  eV     1   --> A              
     e( 25 - 25) =      2.78455  eV     1   --> A              
     e( 26 - 26) =      3.66177  eV     1   --> A              
     e( 27 - 27) =      4.21945  eV     1   --> A              
     e( 28 - 28) =      4.82624  eV     1   --> A              
     e( 29 - 29) =      5.23299  eV     1   --> A              
     e( 30 - 30) =      6.24001  eV     1   --> A              
     e( 31 - 31) =      7.83945  eV     1   --> A              
     e( 32 - 32) =      9.08492  eV     1   --> A              
     e( 33 - 33) =      9.25617  eV     1   --> A              
     e( 34 - 34) =     10.55434  eV     1   --> A              
     e( 35 - 35) =     12.13933  eV     1   --> A              
     e( 36 - 36) =     12.20439  eV     1   --> A              
     e( 37 - 37) =     12.93907  eV     1   --> A              
     e( 38 - 38) =     13.52275  eV     1   --> A              
     e( 39 - 39) =     14.02148  eV     1   --> A              
     e( 40 - 40) =     14.13035  eV     1   --> A              
[...]
     e( 17 - 17) =    -14.85606  eV     1   --> A_1  L_1       
     e( 18 - 18) =    -14.85428  eV     1   --> A_1  L_1       
     e( 19 - 20) =    -14.84336  eV     2   --> E    L_3       
     e( 21 - 22) =    -14.83274  eV     2   --> E    L_3       
     e( 23 - 23) =     -3.93597  eV     1   --> A_1  L_1       
     e( 24 - 24) =     -3.38925  eV     1   --> A_1  L_1       
     e( 25 - 25) =      3.13816  eV     1   --> A_1  L_1       
     e( 26 - 26) =      5.26929  eV     1   --> A_1  L_1       
     e( 27 - 28) =      6.46691  eV     2   --> E    L_3       
     e( 29 - 30) =      6.87862  eV     2   --> E    L_3       
     e( 31 - 31) =      8.06582  eV     1   --> A_1  L_1       
     e( 32 - 32) =      8.57385  eV     1   --> A_1  L_1       
     e( 33 - 34) =     10.06525  eV     2   --> E    L_3       
     e( 35 - 35) =     10.69467  eV     1   --> A_1  L_1       
     e( 36 - 37) =     11.06021  eV     2   --> E    L_3       
     e( 38 - 38) =     11.45140  eV     1   --> A_1  L_1       
     e( 39 - 39) =     12.57841  eV     1   --> A_1  L_1       
     e( 40 - 41) =     12.80339  eV     2   --> E    L_3       
     e( 42 - 42) =     13.93247  eV     1   -->   ?

 **************************************************************************

 **************************************************************************

                    xk=(   0.00000,   0.00000,   0.20603  )

     Band symmetry, C_3v (3m)   point group:

     e(  1 -  1) =    -69.78601  eV     1   --> A_1  L_1       
     e(  2 -  2) =    -69.18770  eV     1   --> A_1  L_1       
     e(  3 -  3) =    -69.18700  eV     1   --> A_1  L_1       
     e(  4 -  4) =    -36.53309  eV     1   --> A_1  L_1       
     e(  5 -  6) =    -36.53008  eV     2   --> E    L_3       
     e(  7 -  8) =    -35.93578  eV     2   --> E    L_3       
     e(  9 - 11) =    -35.93167  eV     3   --> A_1  L_1       
     e(  9 - 11) =    -35.93167  eV     3   --> E    L_3       
     e( 12 - 12) =    -35.92766  eV     1   --> A_1  L_1       
     e( 13 - 14) =    -14.87328  eV     2   --> E    L_3       
     e( 15 - 16) =    -14.86965  eV     2   --> E    L_3       
     e( 17 - 17) =    -14.85609  eV     1   --> A_1  L_1       
     e( 18 - 18) =    -14.85424  eV     1   --> A_1  L_1       
     e( 19 - 20) =    -14.84336  eV     2   --> E    L_3       
     e( 21 - 22) =    -14.83275  eV     2   --> E    L_3       
     e( 23 - 23) =     -3.91660  eV     1   --> A_1  L_1       
     e( 24 - 24) =     -3.41547  eV     1   --> A_1  L_1       
     e( 25 - 25) =      3.23350  eV     1   --> A_1  L_1       
     e( 26 - 26) =      5.11497  eV     1   --> A_1  L_1       
     e( 27 - 28) =      6.48872  eV     2   --> E    L_3       
     e( 29 - 30) =      6.85532  eV     2   --> E    L_3       
     e( 31 - 31) =      8.10435  eV     1   --> A_1  L_1       
     e( 32 - 32) =      8.59925  eV     1   --> A_1  L_1       
     e( 33 - 34) =     10.04399  eV     2   --> E    L_3       
     e( 35 - 35) =     10.66136  eV     1   --> A_1  L_1       
     e( 36 - 37) =     11.02314  eV     2   --> E    L_3       
     e( 38 - 38) =     11.45160  eV     1   --> A_1  L_1       
     e( 39 - 39) =     12.63146  eV     1   --> A_1  L_1       
     e( 40 - 41) =     12.91913  eV     2   --> E    L_3       
     e( 42 - 42) =     14.08321  eV     1   -->   ?

 **************************************************************************

 **************************************************************************

                    xk=(   0.00000,   0.00000,   0.22187  )

     Band symmetry, C_3v (3m)   point group:

     e(  1 -  1) =    -69.78601  eV     1   --> A_1  L_1       
     e(  2 -  2) =    -69.18770  eV     1   --> A_1  L_1       
     e(  3 -  3) =    -69.18700  eV     1   --> A_1  L_1       
     e(  4 -  4) =    -36.53309  eV     1   --> A_1  L_1       
     e(  5 -  6) =    -36.53008  eV     2   --> E    L_3       
     e(  7 -  8) =    -35.93578  eV     2   --> E    L_3       
     e(  9 - 11) =    -35.93167  eV     3   --> A_1  L_1       
     e(  9 - 11) =    -35.93167  eV     3   --> E    L_3       
     e( 12 - 12) =    -35.92766  eV     1   --> A_1  L_1       
     e( 13 - 14) =    -14.87335  eV     2   --> E    L_3       
     e( 15 - 16) =    -14.86958  eV     2   --> E    L_3       
     e( 17 - 17) =    -14.85612  eV     1   --> A_1  L_1       
     e( 18 - 18) =    -14.85421  eV     1   --> A_1  L_1       
     e( 19 - 20) =    -14.84336  eV     2   --> E    L_3       
     e( 21 - 22) =    -14.83277  eV     2   --> E    L_3       
     e( 23 - 23) =     -3.89685  eV     1   --> A_1  L_1       
     e( 24 - 24) =     -3.44152  eV     1   --> A_1  L_1       
     e( 25 - 25) =      3.33427  eV     1   --> A_1  L_1       
     e( 26 - 26) =      4.96308  eV     1   --> A_1  L_1       
     e( 27 - 28) =      6.51173  eV     2   --> E    L_3       
     e( 29 - 30) =      6.83090  eV     2   --> E    L_3       
     e( 31 - 31) =      8.14217  eV     1   --> A_1  L_1       
     e( 32 - 32) =      8.61445  eV     1   --> A_1  L_1       
     e( 33 - 34) =     10.02572  eV     2   --> E    L_3       
     e( 35 - 35) =     10.63587  eV     1   --> A_1  L_1       
     e( 36 - 37) =     10.98933  eV     2   --> E    L_3       
     e( 38 - 38) =     11.44581  eV     1   --> A_1  L_1       
     e( 39 - 39) =     12.70233  eV     1   --> A_1  L_1       
     e( 40 - 41) =     13.03746  eV     2   --> E    L_3       
     e( 42 - 42) =     14.18832  eV     1   -->   ?

 **************************************************************************

 **************************************************************************

                    xk=(   0.00000,   0.00000,   0.23772  )

     Band symmetry, C_3v (3m)   point group:

     e(  1 -  1) =    -69.78601  eV     1   --> A_1  L_1       
     e(  2 -  2) =    -69.18771  eV     1   --> A_1  L_1       
     e(  3 -  3) =    -69.18700  eV     1   --> A_1  L_1       
     e(  4 -  4) =    -36.53309  eV     1   --> A_1  L_1       
     e(  5 -  6) =    -36.53008  eV     2   --> E    L_3       
     e(  7 -  8) =    -35.93578  eV     2   --> E    L_3       
     e(  9 - 11) =    -35.93167  eV     3   --> A_1  L_1       
     e(  9 - 11) =    -35.93167  eV     3   --> E    L_3       
     e( 12 - 12) =    -35.92767  eV     1   --> A_1  L_1       
     e( 13 - 14) =    -14.87340  eV     2   --> E    L_3       
     e( 15 - 16) =    -14.86951  eV     2   --> E    L_3       
     e( 17 - 17) =    -14.85614  eV     1   --> A_1  L_1       
     e( 18 - 18) =    -14.85419  eV     1   --> A_1  L_1       
     e( 19 - 20) =    -14.84335  eV     2   --> E    L_3       
     e( 21 - 22) =    -14.83279  eV     2   --> E    L_3       
     e( 23 - 23) =     -3.87720  eV     1   --> A_1  L_1       
     e( 24 - 24) =     -3.46675  eV     1   --> A_1  L_1       
     e( 25 - 25) =      3.43984  eV     1   --> A_1  L_1       
     e( 26 - 26) =      4.81425  eV     1   --> A_1  L_1       
     e( 27 - 28) =      6.53580  eV     2   --> E    L_3       
     e( 29 - 30) =      6.80556  eV     2   --> E    L_3       
     e( 31 - 31) =      8.17877  eV     1   --> A_1  L_1       
     e( 32 - 32) =      8.62050  eV     1   --> A_1  L_1       
     e( 33 - 34) =     10.01040  eV     2   --> E    L_3       
     e( 35 - 35) =     10.61753  eV     1   --> A_1  L_1       
     e( 36 - 37) =     10.95958  eV     2   --> E    L_3       
     e( 38 - 38) =     11.43570  eV     1   --> A_1  L_1       
     e( 39 - 39) =     12.78919  eV     1   --> A_1  L_1       
     e( 40 - 41) =     13.15550  eV     2   --> E    L_3       
     e( 42 - 42) =     14.09671  eV     1   --> A_1  L_1       

 **************************************************************************

 **************************************************************************

                    xk=(   0.00000,   0.00000,   0.25357  )

     Band symmetry, C_3v (3m)   point group:

     e(  1 -  1) =    -69.78601  eV     1   --> A_1  L_1       
     e(  2 -  2) =    -69.18771  eV     1   --> A_1  L_1       
     e(  3 -  3) =    -69.18700  eV     1   --> A_1  L_1       
     e(  4 -  4) =    -36.53309  eV     1   --> A_1  L_1       
     e(  5 -  6) =    -36.53008  eV     2   --> E    L_3       
     e(  7 -  8) =    -35.93578  eV     2   --> E    L_3       
     e(  9 - 11) =    -35.93167  eV     3   --> A_1  L_1       
     e(  9 - 11) =    -35.93167  eV     3   --> E    L_3       
     e( 12 - 12) =    -35.92767  eV     1   --> A_1  L_1       
     e( 13 - 14) =    -14.87345  eV     2   --> E    L_3       
     e( 15 - 16) =    -14.86946  eV     2   --> E    L_3       
     e( 17 - 17) =    -14.85615  eV     1   --> A_1  L_1       
     e( 18 - 18) =    -14.85417  eV     1   --> A_1  L_1       
     e( 19 - 20) =    -14.84335  eV     2   --> E    L_3       
     e( 21 - 22) =    -14.83280  eV     2   --> E    L_3       
     e( 23 - 23) =     -3.85836  eV     1   --> A_1  L_1       
     e( 24 - 24) =     -3.49034  eV     1   --> A_1  L_1       
     e( 25 - 25) =      3.54930  eV     1   --> A_1  L_1       
     e( 26 - 26) =      4.66942  eV     1   --> A_1  L_1       
     e( 27 - 28) =      6.56075  eV     2   --> E    L_3       
     e( 29 - 30) =      6.77949  eV     2   --> E    L_3       
     e( 31 - 31) =      8.21325  eV     1   --> A_1  L_1       
     e( 32 - 32) =      8.61917  eV     1   --> A_1  L_1       
     e( 33 - 34) =      9.99802  eV     2   --> E    L_3       
     e( 35 - 35) =     10.60521  eV     1   --> A_1  L_1       
     e( 36 - 37) =     10.93447  eV     2   --> E    L_3       
     e( 38 - 38) =     11.42340  eV     1   --> A_1  L_1       
     e( 39 - 39) =     12.88917  eV     1   --> A_1  L_1       
     e( 40 - 41) =     13.26941  eV     2   --> E    L_3       
     e( 42 - 42) =     13.98823  eV     1   --> A_1  L_1       

 **************************************************************************

 **************************************************************************

                    xk=(   0.00000,   0.00000,   0.26942  )

     Band symmetry, C_3v (3m)   point group:

     e(  1 -  1) =    -69.78602  eV     1   --> A_1  L_1       
     e(  2 -  2) =    -69.18771  eV     1   --> A_1  L_1       
     e(  3 -  3) =    -69.18700  eV     1   --> A_1  L_1       
     e(  4 -  4) =    -36.53310  eV     1   --> A_1  L_1       
     e(  5 -  6) =    -36.53008  eV     2   --> E    L_3       
     e(  7 -  8) =    -35.93578  eV     2   --> E    L_3       
     e(  9 - 11) =    -35.93168  eV     3   --> A_1  L_1       
     e(  9 - 11) =    -35.93168  eV     3   --> E    L_3       
     e( 12 - 12) =    -35.92768  eV     1   --> A_1  L_1       
     e( 13 - 14) =    -14.87349  eV     2   --> E    L_3       
     e( 15 - 16) =    -14.86942  eV     2   --> E    L_3       
     e( 17 - 17) =    -14.85618  eV     1   --> A_1  L_1       
     e( 18 - 18) =    -14.85416  eV     1   --> A_1  L_1       
     e( 19 - 20) =    -14.84336  eV     2   --> E    L_3       
     e( 21 - 22) =    -14.83282  eV     2   --> E    L_3       
     e( 23 - 23) =     -3.84131  eV     1   --> A_1  L_1       
     e( 24 - 24) =     -3.51119  eV     1   --> A_1  L_1       
     e( 25 - 25) =      3.66097  eV     1   --> A_1  L_1       
     e( 26 - 26) =      4.53022  eV     1   --> A_1  L_1       
     e( 27 - 28) =      6.58637  eV     2   --> E    L_3       
     e( 29 - 30) =      6.75295  eV     2   --> E    L_3       
     e( 31 - 31) =      8.24411  eV     1   --> A_1  L_1       
     e( 32 - 32) =      8.61274  eV     1   --> A_1  L_1       
     e( 33 - 34) =      9.98843  eV     2   --> E    L_3       
     e( 35 - 35) =     10.59757  eV     1   --> A_1  L_1       
     e( 36 - 37) =     10.91443  eV     2   --> E    L_3       
     e( 38 - 38) =     11.41105  eV     1   --> A_1  L_1       
     e( 39 - 39) =     12.99829  eV     1   --> A_1  L_1       
     e( 40 - 41) =     13.37370  eV     2   --> E    L_3       
     e( 42 - 42) =     13.86971  eV     1   --> A_1  L_1       

 **************************************************************************

 **************************************************************************

                    xk=(   0.00000,   0.00000,   0.28527  )

     Band symmetry, C_3v (3m)   point group:

     e(  1 -  1) =    -69.78602  eV     1   --> A_1  L_1       
     e(  2 -  2) =    -69.18771  eV     1   --> A_1  L_1       
     e(  3 -  3) =    -69.18700  eV     1   --> A_1  L_1       
     e(  4 -  4) =    -36.53310  eV     1   --> A_1  L_1       
     e(  5 -  6) =    -36.53008  eV     2   --> E    L_3       
     e(  7 -  8) =    -35.93578  eV     2   --> E    L_3       
     e(  9 - 11) =    -35.93167  eV     3   --> A_1  L_1       
     e(  9 - 11) =    -35.93167  eV     3   --> E    L_3       
     e( 12 - 12) =    -35.92767  eV     1   --> A_1  L_1       
     e( 13 - 14) =    -14.87351  eV     2   --> E    L_3       
     e( 15 - 16) =    -14.86940  eV     2   --> E    L_3       
     e( 17 - 17) =    -14.85619  eV     1   --> A_1  L_1       
     e( 18 - 18) =    -14.85414  eV     1   --> A_1  L_1       
     e( 19 - 20) =    -14.84335  eV     2   --> E    L_3       
     e( 21 - 22) =    -14.83282  eV     2   --> E    L_3       
     e( 23 - 23) =     -3.82735  eV     1   --> A_1  L_1       
     e( 24 - 24) =     -3.52792  eV     1   --> A_1  L_1       
     e( 25 - 25) =      3.77113  eV     1   --> A_1  L_1       
     e( 26 - 26) =      4.40043  eV     1   --> A_1  L_1       
     e( 27 - 28) =      6.61231  eV     2   --> E    L_3       
     e( 29 - 30) =      6.72633  eV     2   --> E    L_3       
     e( 31 - 31) =      8.26930  eV     1   --> A_1  L_1       
     e( 32 - 32) =      8.60439  eV     1   --> A_1  L_1       
     e( 33 - 34) =      9.98172  eV     2   --> E    L_3       
     e( 35 - 35) =     10.59333  eV     1   --> A_1  L_1       
     e( 36 - 37) =     10.89991  eV     2   --> E    L_3       
     e( 38 - 38) =     11.40071  eV     1   --> A_1  L_1       
     e( 39 - 39) =     13.11065  eV     1   --> A_1  L_1       
     e( 40 - 41) =     13.46054  eV     2   --> E    L_3       
     e( 42 - 42) =     13.74947  eV     1   --> A_1  L_1       

 **************************************************************************

 **************************************************************************

                    xk=(   0.00000,   0.00000,   0.30112  )

     Band symmetry, C_3v (3m)   point group:

     e(  1 -  1) =    -69.78602  eV     1   --> A_1  L_1       
     e(  2 -  2) =    -69.18771  eV     1   --> A_1  L_1       
     e(  3 -  3) =    -69.18700  eV     1   --> A_1  L_1       
     e(  4 -  4) =    -36.53310  eV     1   --> A_1  L_1       
     e(  5 -  6) =    -36.53008  eV     2   --> E    L_3       
     e(  7 -  8) =    -35.93578  eV     2   --> E    L_3       
     e(  9 - 11) =    -35.93167  eV     3   --> A_1  L_1       
     e(  9 - 11) =    -35.93167  eV     3   --> E    L_3       
     e( 12 - 12) =    -35.92768  eV     1   --> A_1  L_1       
     e( 13 - 14) =    -14.87353  eV     2   --> E    L_3       
     e( 15 - 16) =    -14.86938  eV     2   --> E    L_3       
     e( 17 - 17) =    -14.85621  eV     1   --> A_1  L_1       
     e( 18 - 18) =    -14.85415  eV     1   --> A_1  L_1       
     e( 19 - 20) =    -14.84335  eV     2   --> E    L_3       
     e( 21 - 22) =    -14.83282  eV     2   --> E    L_3       
     e( 23 - 23) =     -3.81803  eV     1   --> A_1  L_1       
     e( 24 - 24) =     -3.53893  eV     1   --> A_1  L_1       
     e( 25 - 25) =      3.86832  eV     1   --> A_1  L_1       
     e( 26 - 26) =      4.29145  eV     1   --> A_1  L_1       
     e( 27 - 28) =      6.63752  eV     2   --> E    L_3       
     e( 29 - 30) =      6.70071  eV     2   --> E    L_3       
     e( 31 - 31) =      8.28613  eV     1   --> A_1  L_1       
     e( 32 - 32) =      8.59727  eV     1   --> A_1  L_1       
     e( 33 - 34) =      9.97772  eV     2   --> E    L_3       
     e( 35 - 35) =     10.59128  eV     1   --> A_1  L_1       
     e( 36 - 37) =     10.89109  eV     2   --> E    L_3       
     e( 38 - 38) =     11.39386  eV     1   --> A_1  L_1       
     e( 39 - 39) =     13.21236  eV     1   --> A_1  L_1       
     e( 40 - 41) =     13.51966  eV     2   --> E    L_3       
     e( 42 - 42) =     13.64249  eV     1   --> A_1  L_1       

 **************************************************************************

 **************************************************************************

                    xk=(   0.00000,   0.00000,   0.31696  )

     point group D_3d (-3m) 
     there are  6 classes
     the character table:

       E     2C3   3C2'  i     2S6   3s_d 
A_1g   1.00  1.00  1.00  1.00  1.00  1.00
A_2g   1.00  1.00 -1.00  1.00  1.00 -1.00
E_g    2.00 -1.00  0.00  2.00 -1.00  0.00
A_1u   1.00  1.00  1.00 -1.00 -1.00 -1.00
A_2u   1.00  1.00 -1.00 -1.00 -1.00  1.00
E_u    2.00 -1.00  0.00 -2.00  1.00  0.00

     the symmetry operations in each class and the name of the first element:

     E        1
                                                                 
     2C3      3    4
                                                                 
     3C2'     2    6    5
                                                                 
     i        7
                                                                 
     2S6      9   10
                                                                 
     3s_d     8   12   11
                                                                 

     Band symmetry, D_3d (-3m)  point group:

     e(  1 -  1) =    -69.78602  eV     1   --> A_1g L_1       
     e(  2 -  2) =    -69.18771  eV     1   --> A_2u L_2'      
     e(  3 -  3) =    -69.18700  eV     1   --> A_1g L_1       
     e(  4 -  4) =    -36.53310  eV     1   --> A_2u L_2'      
     e(  5 -  6) =    -36.53008  eV     2   --> E_u  L_3'      
     e(  7 -  8) =    -35.93578  eV     2   --> E_u  L_3'      
     e(  9 - 11) =    -35.93167  eV     3   --> E_g  L_3       
     e(  9 - 11) =    -35.93167  eV     3   --> A_2u L_2'      
     e( 12 - 12) =    -35.92768  eV     1   --> A_1g L_1       
     e( 13 - 14) =    -14.87353  eV     2   --> E_u  L_3'      
     e( 15 - 16) =    -14.86937  eV     2   --> E_g  L_3       
     e( 17 - 17) =    -14.85621  eV     1   --> A_2u L_2'      
     e( 18 - 18) =    -14.85415  eV     1   --> A_1g L_1       
     e( 19 - 20) =    -14.84335  eV     2   --> E_g  L_3       
     e( 21 - 22) =    -14.83282  eV     2   --> E_u  L_3'      
     e( 23 - 23) =     -3.81473  eV     1   --> A_1g L_1       
     e( 24 - 24) =     -3.54280  eV     1   --> A_2u L_2'      
     e( 25 - 25) =      3.91474  eV     1   --> A_2u L_2'      
     e( 26 - 26) =      4.24110  eV     1   --> A_1g L_1       
     e( 27 - 28) =      6.65352  eV     2   --> E_u  L_3'      
     e( 29 - 30) =      6.68457  eV     2   --> E_g  L_3       
     e( 31 - 31) =      8.29211  eV     1   --> A_1g L_1       
     e( 32 - 32) =      8.59449  eV     1   --> A_2u L_2'      
     e( 33 - 34) =      9.97639  eV     2   --> E_u  L_3'      
     e( 35 - 35) =     10.59069  eV     1   --> A_1g L_1       
     e( 36 - 37) =     10.88814  eV     2   --> E_g  L_3       
     e( 38 - 38) =     11.39147  eV     1   --> A_2u L_2'      
     e( 39 - 39) =     13.26172  eV     1   --> A_2u L_2'      
     e( 40 - 41) =     13.54086  eV     2   --> E_u  L_3'      
     e( 42 - 42) =     13.59130  eV     1   --> A_1g L_1       

 **************************************************************************

     BANDS        :     15.64s CPU     22.10s WALL


   This run was terminated on:  17: 0:15  25Sep2023            

=------------------------------------------------------------------------------=
   JOB DONE.
=------------------------------------------------------------------------------=
