
     Program BANDS v.7.1 starts on 22Sep2023 at 17:33:44 

     This program is part of the open-source Quantum ESPRESSO suite
     for quantum simulation of materials; please cite
         "P. Giannozzi et al., J. Phys.:Condens. Matter 21 395502 (2009);
         "P. Giannozzi et al., J. Phys.:Condens. Matter 29 465901 (2017);
         "P. Giannozzi et al., J. Chem. Phys. 152 154105 (2020);
          URL http://www.quantum-espresso.org", 
     in publications or presentations arising from this work. More details at
     http://www.quantum-espresso.org/quote

     Parallel version (MPI & OpenMP), running on      10 processor cores
     Number of MPI processes:                10
     Threads/MPI process:                     1

     MPI processes distributed on     1 nodes
     R & G space division:  proc/nbgrp/npool/nimage =      10
     11666 MiB available memory on the printing compute node when the environment starts


     Reading xml data from directory:

     ./work/pwscf.save/
     file Ni.pbesol-n-kjpaw_psl.1.0.0.UPF: wavefunction(s)  4S 3D renormalized
     file Sn.pbesol-dn-kjpaw_psl.1.0.0.UPF: wavefunction(s)  5S 5P 4D renormalized
     file Zr.pbesol-spn-kjpaw_psl.1.0.0.UPF: wavefunction(s)  4S 4P renormalized

     IMPORTANT: XC functional enforced from input :
     Exchange-correlation= PBESOL
                           (   1   4  10   8   0   0   0)
     Any further DFT definition will be discarded
     Please, verify this is what you really want


     Parallelization info
     --------------------
     sticks:   dense  smooth     PW     G-vecs:    dense   smooth      PW
     Min         288     202     59                11648     6868    1077
     Max         289     203     60                11650     6873    1080
     Sum        2885    2025    593               116489    68699   10779

     Using Slab Decomposition


     Check: negative core charge=   -0.000004
     Reading collected, re-writing distributed wavefunctions
     high-symmetry point:  0.5000 0.2500 0.7500   x coordinate   0.0000
     high-symmetry point:  0.0000 0.5000 0.0000   x coordinate   0.9354
     high-symmetry point:  0.0000 0.0000 0.0000   x coordinate   1.4354
     high-symmetry point:  0.0000 0.5000 0.5000   x coordinate   2.1425
     high-symmetry point:  0.7500 0.5000 0.2500   x coordinate   2.9331
     high-symmetry point:  0.7500 0.3750 0.3750   x coordinate   3.1099

     Plottable bands (eV) written to file bands.out.gnu
     Bands written to file bands.out

 **************************************************************************

                    xk=(   0.50000,   0.25000,   0.75000  )

     point group C_s (m)    
     there are  2 classes
     the character table:

       E     s    
A'     1.00  1.00
A''    1.00 -1.00

     the symmetry operations in each class and the name of the first element:

     E        1
                                                                 
     s        2
                                                                 

     Band symmetry, C_s (m)     point group:

     e(  1 -  1) =    -36.09187  eV     1   --> A'             
     e(  2 -  2) =    -36.09151  eV     1   --> A'             
     e(  3 -  3) =    -36.09114  eV     1   --> A''            
     e(  4 -  4) =    -36.02926  eV     1   --> A'             
     e(  5 -  5) =    -14.18880  eV     1   --> A'             
     e(  6 -  6) =    -14.18195  eV     1   --> A''            
     e(  7 -  7) =    -14.18146  eV     1   --> A'             
     e(  8 -  8) =    -14.17726  eV     1   --> A'             
     e(  9 -  9) =    -14.16816  eV     1   --> A''            
     e( 10 - 10) =    -14.16205  eV     1   --> A'             
     e( 11 - 11) =    -14.16039  eV     1   --> A''            
     e( 12 - 12) =    -14.16012  eV     1   --> A'             
     e( 13 - 13) =    -14.15675  eV     1   --> A''            
     e( 14 - 14) =    -14.11112  eV     1   --> A'             
     e( 15 - 15) =    -14.10926  eV     1   --> A'             
     e( 16 - 16) =    -14.10726  eV     1   --> A''            
     e( 17 - 17) =     -7.76462  eV     1   --> A''            
     e( 18 - 18) =     -7.75720  eV     1   --> A'             
     e( 19 - 19) =     -7.75620  eV     1   --> A''            
     e( 20 - 20) =     -7.75553  eV     1   --> A'             
     e( 21 - 21) =     -7.75482  eV     1   --> A''            
     e( 22 - 22) =     -7.75033  eV     1   --> A'             
     e( 23 - 23) =     -7.74929  eV     1   --> A'             
     e( 24 - 24) =     -7.74720  eV     1   --> A''            
     e( 25 - 25) =     -7.74606  eV     1   --> A'             
     e( 26 - 26) =     -7.74554  eV     1   --> A'             
     e( 27 - 27) =     -7.74454  eV     1   --> A''            
     e( 28 - 28) =     -7.74174  eV     1   --> A'             
     e( 29 - 29) =     -7.73897  eV     1   --> A'             
     e( 30 - 30) =     -7.73665  eV     1   --> A''            
     e( 31 - 31) =     -7.73558  eV     1   --> A'             
     e( 32 - 33) =     -7.73526  eV     2   --> A'             
     e( 32 - 33) =     -7.73526  eV     2   --> A''            
     e( 34 - 34) =     -7.73402  eV     1   --> A''            
     e( 35 - 35) =     -7.73353  eV     1   --> A'             
     e( 36 - 36) =     -7.72984  eV     1   --> A''            
     e( 37 - 37) =      4.76967  eV     1   --> A'             
     e( 38 - 38) =      4.77516  eV     1   --> A'             
     e( 39 - 39) =      5.49935  eV     1   --> A'             
     e( 40 - 40) =      5.50444  eV     1   --> A''            
     e( 41 - 41) =      8.33437  eV     1   --> A''            
     e( 42 - 42) =      8.33874  eV     1   --> A'             
     e( 43 - 43) =      8.88581  eV     1   --> A'             
     e( 44 - 44) =      8.88980  eV     1   --> A'             
     e( 45 - 45) =      9.67423  eV     1   --> A'             
     e( 46 - 46) =      9.67787  eV     1   --> A''            
     e( 47 - 47) =      9.94943  eV     1   --> A'             
     e( 48 - 48) =      9.95527  eV     1   --> A'             
     e( 49 - 49) =     10.11539  eV     1   --> A''            
     e( 50 - 50) =     10.11973  eV     1   --> A'             
     e( 51 - 51) =     10.26567  eV     1   --> A''            
     e( 52 - 52) =     10.27056  eV     1   --> A''            
     e( 53 - 53) =     10.92379  eV     1   --> A''            
     e( 54 - 54) =     10.92510  eV     1   --> A'             
     e( 55 - 55) =     10.92567  eV     1   --> A''            
     e( 56 - 56) =     10.92654  eV     1   --> A'             
     e( 57 - 58) =     10.93719  eV     2   --> A'             
     e( 57 - 58) =     10.93719  eV     2   --> A''            
     e( 59 - 59) =     10.99776  eV     1   --> A''            
     e( 60 - 60) =     10.99964  eV     1   --> A'             
     e( 61 - 61) =     11.09660  eV     1   --> A'             
     e( 62 - 62) =     11.09801  eV     1   --> A'             
     e( 63 - 63) =     11.11232  eV     1   --> A''            
     e( 64 - 64) =     11.11427  eV     1   --> A'             
     e( 65 - 65) =     11.71783  eV     1   --> A''            
     e( 66 - 66) =     11.72080  eV     1   --> A'             
     e( 67 - 67) =     12.07131  eV     1   --> A'             
     e( 68 - 68) =     12.07397  eV     1   --> A'             
     e( 69 - 69) =     12.09983  eV     1   --> A''            
     e( 70 - 70) =     12.10271  eV     1   --> A'             
     e( 71 - 71) =     12.18781  eV     1   --> A''            
     e( 72 - 72) =     12.19032  eV     1   --> A''            
     e( 73 - 73) =     14.16842  eV     1   --> A'             
     e( 74 - 74) =     14.17664  eV     1   --> A'             
     e( 75 - 75) =     14.54615  eV     1   --> A'             
     e( 76 - 76) =     14.55256  eV     1   --> A''            
     e( 77 - 77) =     14.66630  eV     1   --> A''            
     e( 78 - 78) =     14.67118  eV     1   --> A'             
     e( 79 - 79) =     14.68799  eV     1   --> A''            
     e( 80 - 80) =     14.69206  eV     1   --> A''            
     e( 81 - 81) =     15.10857  eV     1   --> A''            
     e( 82 - 82) =     15.12551  eV     1   --> A'             
     e( 83 - 83) =     15.32240  eV     1   --> A'             
     e( 84 - 84) =     15.33196  eV     1   --> A'             
     e( 85 - 85) =     16.51295  eV     1   --> A''            
     e( 86 - 86) =     16.52273  eV     1   --> A'             
     e( 87 - 87) =     16.69433  eV     1   --> A'             
     e( 88 - 88) =     16.70108  eV     1   --> A''            
     e( 89 - 89) =     17.07922  eV     1   --> A'             
     e( 90 - 90) =     17.08399  eV     1   --> A'             
     e( 91 - 91) =     17.26923  eV     1   --> A''            
     e( 92 - 92) =     17.27199  eV     1   --> A''            

 **************************************************************************

 **************************************************************************

                    xk=(   0.47500,   0.26250,   0.71250  )

     point group C_1 (1)    
     there are  1 classes
     the character table:

       E    
A      1.00

     the symmetry operations in each class and the name of the first element:

     E        1
                                                                 

     Band symmetry, C_1 (1)     point group:

     e(  1 -  1) =    -36.09176  eV     1   --> A              
     e(  2 -  2) =    -36.09145  eV     1   --> A              
     e(  3 -  3) =    -36.09118  eV     1   --> A              
     e(  4 -  4) =    -36.02922  eV     1   --> A              
     e(  5 -  5) =    -14.19022  eV     1   --> A              
     e(  6 -  6) =    -14.18329  eV     1   --> A              
     e(  7 -  7) =    -14.18236  eV     1   --> A              
     e(  8 -  8) =    -14.17906  eV     1   --> A              
     e(  9 -  9) =    -14.16681  eV     1   --> A              
     e( 10 - 10) =    -14.16177  eV     1   --> A              
     e( 11 - 11) =    -14.16008  eV     1   --> A              
     e( 12 - 12) =    -14.15993  eV     1   --> A              
     e( 13 - 13) =    -14.15717  eV     1   --> A              
     e( 14 - 14) =    -14.11085  eV     1   --> A              
     e( 15 - 15) =    -14.10952  eV     1   --> A              
     e( 16 - 16) =    -14.10761  eV     1   --> A              
     e( 17 - 17) =     -7.76289  eV     1   --> A              
     e( 18 - 18) =     -7.75659  eV     1   --> A              
     e( 19 - 19) =     -7.75452  eV     1   --> A              
     e( 20 - 20) =     -7.75387  eV     1   --> A              
     e( 21 - 21) =     -7.75323  eV     1   --> A              
     e( 22 - 22) =     -7.74951  eV     1   --> A              
     e( 23 - 23) =     -7.74870  eV     1   --> A              
     e( 24 - 24) =     -7.74710  eV     1   --> A              
     e( 25 - 25) =     -7.74548  eV     1   --> A              
     e( 26 - 26) =     -7.74527  eV     1   --> A              
     e( 27 - 27) =     -7.74433  eV     1   --> A              
     e( 28 - 28) =     -7.74072  eV     1   --> A              
     e( 29 - 29) =     -7.73898  eV     1   --> A              
     e( 30 - 30) =     -7.73628  eV     1   --> A              
     e( 31 - 31) =     -7.73589  eV     1   --> A              
     e( 32 - 32) =     -7.73527  eV     1   --> A              
     e( 33 - 33) =     -7.73481  eV     1   --> A              
     e( 34 - 34) =     -7.73385  eV     1   --> A              
     e( 35 - 35) =     -7.73373  eV     1   --> A              
     e( 36 - 36) =     -7.73047  eV     1   --> A              
     e( 37 - 37) =      4.79017  eV     1   --> A              
     e( 38 - 38) =      4.92259  eV     1   --> A              
     e( 39 - 39) =      5.48557  eV     1   --> A              
     e( 40 - 40) =      5.49539  eV     1   --> A              
     e( 41 - 41) =      8.25108  eV     1   --> A              
     e( 42 - 42) =      8.25835  eV     1   --> A              
     e( 43 - 43) =      8.70312  eV     1   --> A              
     e( 44 - 44) =      8.84266  eV     1   --> A              
     e( 45 - 45) =      9.71619  eV     1   --> A              
     e( 46 - 46) =      9.72136  eV     1   --> A              
     e( 47 - 47) =      9.89761  eV     1   --> A              
     e( 48 - 48) =      9.93366  eV     1   --> A              
     e( 49 - 49) =     10.08861  eV     1   --> A              
     e( 50 - 50) =     10.09427  eV     1   --> A              
     e( 51 - 51) =     10.19980  eV     1   --> A              
     e( 52 - 52) =     10.22517  eV     1   --> A              
     e( 53 - 53) =     10.91332  eV     1   --> A              
     e( 54 - 54) =     10.91502  eV     1   --> A              
     e( 55 - 55) =     10.93239  eV     1   --> A              
     e( 56 - 56) =     10.93697  eV     1   --> A              
     e( 57 - 57) =     10.93940  eV     1   --> A              
     e( 58 - 58) =     10.94080  eV     1   --> A              
     e( 59 - 59) =     10.98715  eV     1   --> A              
     e( 60 - 60) =     10.99024  eV     1   --> A              
     e( 61 - 61) =     11.06749  eV     1   --> A              
     e( 62 - 62) =     11.07691  eV     1   --> A              
     e( 63 - 63) =     11.07967  eV     1   --> A              
     e( 64 - 64) =     11.08207  eV     1   --> A              
     e( 65 - 65) =     11.79921  eV     1   --> A              
     e( 66 - 66) =     11.80254  eV     1   --> A              
     e( 67 - 67) =     12.05907  eV     1   --> A              
     e( 68 - 68) =     12.11561  eV     1   --> A              
     e( 69 - 69) =     12.11910  eV     1   --> A              
     e( 70 - 70) =     12.13095  eV     1   --> A              
     e( 71 - 71) =     12.19047  eV     1   --> A              
     e( 72 - 72) =     12.21484  eV     1   --> A              
     e( 73 - 73) =     14.24245  eV     1   --> A              
     e( 74 - 74) =     14.28246  eV     1   --> A              
     e( 75 - 75) =     14.56693  eV     1   --> A              
     e( 76 - 76) =     14.57874  eV     1   --> A              
     e( 77 - 77) =     14.68267  eV     1   --> A              
     e( 78 - 78) =     14.70925  eV     1   --> A              
     e( 79 - 79) =     14.71824  eV     1   --> A              
     e( 80 - 80) =     14.74837  eV     1   --> A              
     e( 81 - 81) =     15.09229  eV     1   --> A              
     e( 82 - 82) =     15.10899  eV     1   --> A              
     e( 83 - 83) =     15.24345  eV     1   --> A              
     e( 84 - 84) =     15.29507  eV     1   --> A              
     e( 85 - 85) =     16.65924  eV     1   --> A              
     e( 86 - 86) =     16.67568  eV     1   --> A              
     e( 87 - 87) =     16.82260  eV     1   --> A              
     e( 88 - 88) =     16.84750  eV     1   --> A              
     e( 89 - 89) =     16.93356  eV     1   --> A              
     e( 90 - 90) =     17.06763  eV     1   --> A              
     e( 91 - 91) =     17.30425  eV     1   --> A              
     e( 92 - 92) =     17.50647  eV     1   --> A              

 **************************************************************************

 **************************************************************************

                    xk=(   0.45000,   0.27500,   0.67500  )

     Band symmetry, C_1 (1)     point group:

     e(  1 -  1) =    -36.09173  eV     1   --> A              
     e(  2 -  2) =    -36.09140  eV     1   --> A              
     e(  3 -  3) =    -36.09122  eV     1   --> A              
     e(  4 -  4) =    -36.02921  eV     1   --> A              
     e(  5 -  5) =    -14.19149  eV     1   --> A              
     e(  6 -  6) =    -14.18446  eV     1   --> A              
     e(  7 -  7) =    -14.18310  eV     1   --> A              
     e(  8 -  8) =    -14.18073  eV     1   --> A              
     e(  9 -  9) =    -14.16553  eV     1   --> A              
     e( 10 - 10) =    -14.16192  eV     1   --> A              
     e( 11 - 11) =    -14.15983  eV     1   --> A              
     e( 12 - 12) =    -14.15938  eV     1   --> A              
     e( 13 - 13) =    -14.15762  eV     1   --> A              
     e( 14 - 14) =    -14.11068  eV     1   --> A              
     e( 15 - 15) =    -14.10959  eV     1   --> A              
     e( 16 - 16) =    -14.10795  eV     1   --> A              
     e( 17 - 17) =     -7.76136  eV     1   --> A              
     e( 18 - 18) =     -7.75612  eV     1   --> A              
     e( 19 - 19) =     -7.75308  eV     1   --> A              
     e( 20 - 20) =     -7.75242  eV     1   --> A              
     e( 21 - 21) =     -7.75186  eV     1   --> A              
     e( 22 - 22) =     -7.74878  eV     1   --> A              
     e( 23 - 23) =     -7.74823  eV     1   --> A              
     e( 24 - 24) =     -7.74707  eV     1   --> A              
     e( 25 - 25) =     -7.74511  eV     1   --> A              
     e( 26 - 26) =     -7.74488  eV     1   --> A              
     e( 27 - 27) =     -7.74422  eV     1   --> A              
     e( 28 - 28) =     -7.73999  eV     1   --> A              
     e( 29 - 29) =     -7.73872  eV     1   --> A              
     e( 30 - 30) =     -7.73625  eV     1   --> A              
     e( 31 - 31) =     -7.73601  eV     1   --> A              
     e( 32 - 32) =     -7.73525  eV     1   --> A              
     e( 33 - 33) =     -7.73450  eV     1   --> A              
     e( 34 - 34) =     -7.73393  eV     1   --> A              
     e( 35 - 35) =     -7.73336  eV     1   --> A              
     e( 36 - 36) =     -7.73105  eV     1   --> A              
     e( 37 - 37) =      4.81853  eV     1   --> A              
     e( 38 - 38) =      5.06952  eV     1   --> A              
     e( 39 - 39) =      5.45210  eV     1   --> A              
     e( 40 - 40) =      5.48856  eV     1   --> A              
     e( 41 - 41) =      8.18106  eV     1   --> A              
     e( 42 - 42) =      8.20840  eV     1   --> A              
     e( 43 - 43) =      8.52178  eV     1   --> A              
     e( 44 - 44) =      8.78009  eV     1   --> A              
     e( 45 - 45) =      9.75250  eV     1   --> A              
     e( 46 - 46) =      9.76332  eV     1   --> A              
     e( 47 - 47) =      9.86071  eV     1   --> A              
     e( 48 - 48) =      9.93280  eV     1   --> A              
     e( 49 - 49) =     10.06526  eV     1   --> A              
     e( 50 - 50) =     10.08060  eV     1   --> A              
     e( 51 - 51) =     10.13766  eV     1   --> A              
     e( 52 - 52) =     10.17893  eV     1   --> A              
     e( 53 - 53) =     10.90768  eV     1   --> A              
     e( 54 - 54) =     10.90863  eV     1   --> A              
     e( 55 - 55) =     10.93575  eV     1   --> A              
     e( 56 - 56) =     10.93989  eV     1   --> A              
     e( 57 - 57) =     10.94348  eV     1   --> A              
     e( 58 - 58) =     10.95010  eV     1   --> A              
     e( 59 - 59) =     10.97732  eV     1   --> A              
     e( 60 - 60) =     10.98472  eV     1   --> A              
     e( 61 - 61) =     11.03715  eV     1   --> A              
     e( 62 - 62) =     11.04724  eV     1   --> A              
     e( 63 - 63) =     11.05254  eV     1   --> A              
     e( 64 - 64) =     11.05852  eV     1   --> A              
     e( 65 - 65) =     11.87059  eV     1   --> A              
     e( 66 - 66) =     11.88053  eV     1   --> A              
     e( 67 - 67) =     12.04568  eV     1   --> A              
     e( 68 - 68) =     12.13113  eV     1   --> A              
     e( 69 - 69) =     12.13965  eV     1   --> A              
     e( 70 - 70) =     12.17318  eV     1   --> A              
     e( 71 - 71) =     12.19042  eV     1   --> A              
     e( 72 - 72) =     12.23937  eV     1   --> A              
     e( 73 - 73) =     14.31981  eV     1   --> A              
     e( 74 - 74) =     14.38992  eV     1   --> A              
     e( 75 - 75) =     14.54072  eV     1   --> A              
     e( 76 - 76) =     14.57618  eV     1   --> A              
     e( 77 - 77) =     14.67207  eV     1   --> A              
     e( 78 - 78) =     14.78260  eV     1   --> A              
     e( 79 - 79) =     14.79722  eV     1   --> A              
     e( 80 - 80) =     14.80998  eV     1   --> A              
     e( 81 - 81) =     15.07477  eV     1   --> A              
     e( 82 - 82) =     15.09951  eV     1   --> A              
     e( 83 - 83) =     15.16942  eV     1   --> A              
     e( 84 - 84) =     15.25827  eV     1   --> A              
     e( 85 - 85) =     16.71557  eV     1   --> A              
     e( 86 - 86) =     16.75618  eV     1   --> A              
     e( 87 - 87) =     16.81396  eV     1   --> A              
     e( 88 - 88) =     16.96522  eV     1   --> A              
     e( 89 - 89) =     17.02614  eV     1   --> A              
     e( 90 - 90) =     17.05999  eV     1   --> A              
     e( 91 - 91) =     17.31179  eV     1   --> A              
     e( 92 - 92) =     17.72420  eV     1   --> A              

 **************************************************************************

 **************************************************************************

                    xk=(   0.42500,   0.28750,   0.63750  )

     Band symmetry, C_1 (1)     point group:

     e(  1 -  1) =    -36.09170  eV     1   --> A              
     e(  2 -  2) =    -36.09137  eV     1   --> A              
     e(  3 -  3) =    -36.09125  eV     1   --> A              
     e(  4 -  4) =    -36.02920  eV     1   --> A              
     e(  5 -  5) =    -14.19250  eV     1   --> A              
     e(  6 -  6) =    -14.18535  eV     1   --> A              
     e(  7 -  7) =    -14.18373  eV     1   --> A              
     e(  8 -  8) =    -14.18214  eV     1   --> A              
     e(  9 -  9) =    -14.16439  eV     1   --> A              
     e( 10 - 10) =    -14.16212  eV     1   --> A              
     e( 11 - 11) =    -14.15964  eV     1   --> A              
     e( 12 - 12) =    -14.15888  eV     1   --> A              
     e( 13 - 13) =    -14.15806  eV     1   --> A              
     e( 14 - 14) =    -14.11061  eV     1   --> A              
     e( 15 - 15) =    -14.10950  eV     1   --> A              
     e( 16 - 16) =    -14.10826  eV     1   --> A              
     e( 17 - 17) =     -7.76013  eV     1   --> A              
     e( 18 - 18) =     -7.75573  eV     1   --> A              
     e( 19 - 19) =     -7.75193  eV     1   --> A              
     e( 20 - 20) =     -7.75126  eV     1   --> A              
     e( 21 - 21) =     -7.75086  eV     1   --> A              
     e( 22 - 22) =     -7.74816  eV     1   --> A              
     e( 23 - 23) =     -7.74790  eV     1   --> A              
     e( 24 - 24) =     -7.74703  eV     1   --> A              
     e( 25 - 25) =     -7.74487  eV     1   --> A              
     e( 26 - 26) =     -7.74443  eV     1   --> A              
     e( 27 - 27) =     -7.74415  eV     1   --> A              
     e( 28 - 28) =     -7.73973  eV     1   --> A              
     e( 29 - 29) =     -7.73812  eV     1   --> A              
     e( 30 - 30) =     -7.73649  eV     1   --> A              
     e( 31 - 31) =     -7.73590  eV     1   --> A              
     e( 32 - 32) =     -7.73508  eV     1   --> A              
     e( 33 - 33) =     -7.73456  eV     1   --> A              
     e( 34 - 34) =     -7.73371  eV     1   --> A              
     e( 35 - 35) =     -7.73312  eV     1   --> A              
     e( 36 - 36) =     -7.73153  eV     1   --> A              
     e( 37 - 37) =      4.85671  eV     1   --> A              
     e( 38 - 38) =      5.20652  eV     1   --> A              
     e( 39 - 39) =      5.39823  eV     1   --> A              
     e( 40 - 40) =      5.48340  eV     1   --> A              
     e( 41 - 41) =      8.12616  eV     1   --> A              
     e( 42 - 42) =      8.19430  eV     1   --> A              
     e( 43 - 43) =      8.35589  eV     1   --> A              
     e( 44 - 44) =      8.70624  eV     1   --> A              
     e( 45 - 45) =      9.78196  eV     1   --> A              
     e( 46 - 46) =      9.79909  eV     1   --> A              
     e( 47 - 47) =      9.83853  eV     1   --> A              
     e( 48 - 48) =      9.94374  eV     1   --> A              
     e( 49 - 49) =     10.04629  eV     1   --> A              
     e( 50 - 50) =     10.07916  eV     1   --> A              
     e( 51 - 51) =     10.08642  eV     1   --> A              
     e( 52 - 52) =     10.13170  eV     1   --> A              
     e( 53 - 53) =     10.90464  eV     1   --> A              
     e( 54 - 54) =     10.90903  eV     1   --> A              
     e( 55 - 55) =     10.92666  eV     1   --> A              
     e( 56 - 56) =     10.94599  eV     1   --> A              
     e( 57 - 57) =     10.94728  eV     1   --> A              
     e( 58 - 58) =     10.96395  eV     1   --> A              
     e( 59 - 59) =     10.96648  eV     1   --> A              
     e( 60 - 60) =     10.98003  eV     1   --> A              
     e( 61 - 61) =     11.00697  eV     1   --> A              
     e( 62 - 62) =     11.01912  eV     1   --> A              
     e( 63 - 63) =     11.03307  eV     1   --> A              
     e( 64 - 64) =     11.04024  eV     1   --> A              
     e( 65 - 65) =     11.92744  eV     1   --> A              
     e( 66 - 66) =     11.95359  eV     1   --> A              
     e( 67 - 67) =     12.03309  eV     1   --> A              
     e( 68 - 68) =     12.14543  eV     1   --> A              
     e( 69 - 69) =     12.16172  eV     1   --> A              
     e( 70 - 70) =     12.18778  eV     1   --> A              
     e( 71 - 71) =     12.19923  eV     1   --> A              
     e( 72 - 72) =     12.25769  eV     1   --> A              
     e( 73 - 73) =     14.40305  eV     1   --> A              
     e( 74 - 74) =     14.48940  eV     1   --> A              
     e( 75 - 75) =     14.51314  eV     1   --> A              
     e( 76 - 76) =     14.58264  eV     1   --> A              
     e( 77 - 77) =     14.65673  eV     1   --> A              
     e( 78 - 78) =     14.83858  eV     1   --> A              
     e( 79 - 79) =     14.85060  eV     1   --> A              
     e( 80 - 80) =     14.86134  eV     1   --> A              
     e( 81 - 81) =     15.05358  eV     1   --> A              
     e( 82 - 82) =     15.11243  eV     1   --> A              
     e( 83 - 83) =     15.11868  eV     1   --> A              
     e( 84 - 84) =     15.21183  eV     1   --> A              
     e( 85 - 85) =     16.72835  eV     1   --> A              
     e( 86 - 86) =     16.73563  eV     1   --> A              
     e( 87 - 87) =     16.74944  eV     1   --> A              
     e( 88 - 88) =     16.96324  eV     1   --> A              
     e( 89 - 89) =     17.12459  eV     1   --> A              
     e( 90 - 90) =     17.28127  eV     1   --> A              
     e( 91 - 91) =     17.30593  eV     1   --> A              
     e( 92 - 92) =     17.58659  eV     1   --> A              

 **************************************************************************

 **************************************************************************

                    xk=(   0.40000,   0.30000,   0.60000  )

     point group C_s (m)    
     there are  2 classes
     the character table:

       E     s    
A'     1.00  1.00
A''    1.00 -1.00

     the symmetry operations in each class and the name of the first element:

     E        1
                                                                 
     s        2
                                                                 

     Band symmetry, C_s (m)     point group:

     e(  1 -  1) =    -36.09168  eV     1   --> A'             
     e(  2 -  3) =    -36.09137  eV     2   --> A'             
     e(  2 -  3) =    -36.09137  eV     2   --> A''            
     e(  4 -  4) =    -36.02921  eV     1   --> A'             
     e(  5 -  5) =    -14.19320  eV     1   --> A'             
     e(  6 -  6) =    -14.18591  eV     1   --> A'             
     e(  7 -  7) =    -14.18429  eV     1   --> A''            
     e(  8 -  8) =    -14.18316  eV     1   --> A'             
     e(  9 -  9) =    -14.16361  eV     1   --> A'             
     e( 10 - 10) =    -14.16207  eV     1   --> A''            
     e( 11 - 11) =    -14.15954  eV     1   --> A''            
     e( 12 - 13) =    -14.15856  eV     2   --> A'             
     e( 12 - 13) =    -14.15856  eV     2   --> A''            
     e( 14 - 14) =    -14.11055  eV     1   --> A'             
     e( 15 - 15) =    -14.10945  eV     1   --> A''            
     e( 16 - 16) =    -14.10846  eV     1   --> A'             
     e( 17 - 17) =     -7.75928  eV     1   --> A'             
     e( 18 - 18) =     -7.75543  eV     1   --> A''            
     e( 19 - 19) =     -7.75112  eV     1   --> A'             
     e( 20 - 20) =     -7.75048  eV     1   --> A''            
     e( 21 - 21) =     -7.75023  eV     1   --> A'             
     e( 22 - 23) =     -7.74776  eV     2   --> A'             
     e( 22 - 23) =     -7.74776  eV     2   --> A''            
     e( 24 - 24) =     -7.74691  eV     1   --> A''            
     e( 25 - 25) =     -7.74467  eV     1   --> A'             
     e( 26 - 27) =     -7.74405  eV     2   --> A'             
     e( 26 - 27) =     -7.74405  eV     2   --> A''            
     e( 28 - 28) =     -7.73965  eV     1   --> A'             
     e( 29 - 29) =     -7.73767  eV     1   --> A'             
     e( 30 - 30) =     -7.73647  eV     1   --> A''            
     e( 31 - 31) =     -7.73579  eV     1   --> A'             
     e( 32 - 32) =     -7.73494  eV     1   --> A'             
     e( 33 - 33) =     -7.73462  eV     1   --> A''            
     e( 34 - 34) =     -7.73360  eV     1   --> A''            
     e( 35 - 35) =     -7.73308  eV     1   --> A'             
     e( 36 - 36) =     -7.73178  eV     1   --> A''            
     e( 37 - 37) =      4.90376  eV     1   --> A'             
     e( 38 - 38) =      5.32288  eV     1   --> A'             
     e( 39 - 39) =      5.32711  eV     1   --> A''            
     e( 40 - 40) =      5.47981  eV     1   --> A'             
     e( 41 - 41) =      8.08776  eV     1   --> A'             
     e( 42 - 42) =      8.21513  eV     1   --> A''            
     e( 43 - 43) =      8.22037  eV     1   --> A'             
     e( 44 - 44) =      8.62815  eV     1   --> A'             
     e( 45 - 45) =      9.80339  eV     1   --> A'             
     e( 46 - 46) =      9.82665  eV     1   --> A'             
     e( 47 - 47) =      9.82859  eV     1   --> A''            
     e( 48 - 48) =      9.95163  eV     1   --> A''            
     e( 49 - 49) =     10.03306  eV     1   --> A''            
     e( 50 - 50) =     10.05563  eV     1   --> A'             
     e( 51 - 51) =     10.08646  eV     1   --> A''            
     e( 52 - 52) =     10.08774  eV     1   --> A'             
     e( 53 - 53) =     10.90387  eV     1   --> A'             
     e( 54 - 54) =     10.91487  eV     1   --> A'             
     e( 55 - 55) =     10.91521  eV     1   --> A''            
     e( 56 - 56) =     10.94718  eV     1   --> A'             
     e( 57 - 57) =     10.95325  eV     1   --> A''            
     e( 58 - 58) =     10.95479  eV     1   --> A'             
     e( 59 - 59) =     10.97163  eV     1   --> A''            
     e( 60 - 60) =     10.97789  eV     1   --> A''            
     e( 61 - 61) =     10.97899  eV     1   --> A'             
     e( 62 - 62) =     11.00268  eV     1   --> A'             
     e( 63 - 63) =     11.02233  eV     1   --> A''            
     e( 64 - 64) =     11.02496  eV     1   --> A'             
     e( 65 - 65) =     11.96673  eV     1   --> A'             
     e( 66 - 66) =     12.01991  eV     1   --> A''            
     e( 67 - 67) =     12.02123  eV     1   --> A'             
     e( 68 - 68) =     12.15760  eV     1   --> A''            
     e( 69 - 69) =     12.18254  eV     1   --> A''            
     e( 70 - 70) =     12.18372  eV     1   --> A'             
     e( 71 - 71) =     12.21177  eV     1   --> A'             
     e( 72 - 72) =     12.26286  eV     1   --> A''            
     e( 73 - 73) =     14.48976  eV     1   --> A''            
     e( 74 - 74) =     14.49196  eV     1   --> A'             
     e( 75 - 75) =     14.55739  eV     1   --> A''            
     e( 76 - 76) =     14.60399  eV     1   --> A'             
     e( 77 - 77) =     14.65139  eV     1   --> A'             
     e( 78 - 78) =     14.85984  eV     1   --> A''            
     e( 79 - 79) =     14.87385  eV     1   --> A'             
     e( 80 - 80) =     14.87414  eV     1   --> A''            
     e( 81 - 81) =     15.04343  eV     1   --> A'             
     e( 82 - 82) =     15.09159  eV     1   --> A'             
     e( 83 - 83) =     15.15382  eV     1   --> A''            
     e( 84 - 84) =     15.15883  eV     1   --> A'             
     e( 85 - 85) =     16.69832  eV     1   --> A'             
     e( 86 - 86) =     16.70129  eV     1   --> A''            
     e( 87 - 87) =     16.72147  eV     1   --> A'             
     e( 88 - 88) =     16.88892  eV     1   --> A'             
     e( 89 - 89) =     17.29897  eV     1   --> A''            
     e( 90 - 90) =     17.29960  eV     1   --> A'             
     e( 91 - 91) =     17.46166  eV     1   --> A'             
     e( 92 - 92) =     17.50084  eV     1   --> A''            

 **************************************************************************

 **************************************************************************

                    xk=(   0.37500,   0.31250,   0.56250  )

     point group C_1 (1)    
     there are  1 classes
     the character table:

       E    
A      1.00

     the symmetry operations in each class and the name of the first element:

     E        1
                                                                 

     Band symmetry, C_1 (1)     point group:

     e(  1 -  1) =    -36.09164  eV     1   --> A              
     e(  2 -  3) =    -36.09138  eV     2   -->   2 A              
     e(  4 -  4) =    -36.02919  eV     1   --> A              
     e(  5 -  5) =    -14.19357  eV     1   --> A              
     e(  6 -  6) =    -14.18613  eV     1   --> A              
     e(  7 -  7) =    -14.18483  eV     1   --> A              
     e(  8 -  8) =    -14.18363  eV     1   --> A              
     e(  9 -  9) =    -14.16345  eV     1   --> A              
     e( 10 - 10) =    -14.16152  eV     1   --> A              
     e( 11 - 11) =    -14.15952  eV     1   --> A              
     e( 12 - 12) =    -14.15904  eV     1   --> A              
     e( 13 - 13) =    -14.15829  eV     1   --> A              
     e( 14 - 14) =    -14.11044  eV     1   --> A              
     e( 15 - 15) =    -14.10957  eV     1   --> A              
     e( 16 - 16) =    -14.10850  eV     1   --> A              
     e( 17 - 17) =     -7.75883  eV     1   --> A              
     e( 18 - 18) =     -7.75522  eV     1   --> A              
     e( 19 - 19) =     -7.75064  eV     1   --> A              
     e( 20 - 20) =     -7.75015  eV     1   --> A              
     e( 21 - 21) =     -7.74984  eV     1   --> A              
     e( 22 - 22) =     -7.74780  eV     1   --> A              
     e( 23 - 23) =     -7.74760  eV     1   --> A              
     e( 24 - 24) =     -7.74675  eV     1   --> A              
     e( 25 - 25) =     -7.74450  eV     1   --> A              
     e( 26 - 26) =     -7.74390  eV     1   --> A              
     e( 27 - 27) =     -7.74375  eV     1   --> A              
     e( 28 - 28) =     -7.73957  eV     1   --> A              
     e( 29 - 29) =     -7.73775  eV     1   --> A              
     e( 30 - 30) =     -7.73605  eV     1   --> A              
     e( 31 - 31) =     -7.73561  eV     1   --> A              
     e( 32 - 32) =     -7.73495  eV     1   --> A              
     e( 33 - 33) =     -7.73454  eV     1   --> A              
     e( 34 - 34) =     -7.73377  eV     1   --> A              
     e( 35 - 35) =     -7.73321  eV     1   --> A              
     e( 36 - 36) =     -7.73177  eV     1   --> A              
     e( 37 - 37) =      4.95839  eV     1   --> A              
     e( 38 - 38) =      5.23539  eV     1   --> A              
     e( 39 - 39) =      5.41499  eV     1   --> A              
     e( 40 - 40) =      5.47791  eV     1   --> A              
     e( 41 - 41) =      8.06650  eV     1   --> A              
     e( 42 - 42) =      8.11960  eV     1   --> A              
     e( 43 - 43) =      8.27739  eV     1   --> A              
     e( 44 - 44) =      8.55247  eV     1   --> A              
     e( 45 - 45) =      9.81531  eV     1   --> A              
     e( 46 - 46) =      9.82367  eV     1   --> A              
     e( 47 - 47) =      9.85188  eV     1   --> A              
     e( 48 - 48) =      9.93832  eV     1   --> A              
     e( 49 - 49) =     10.02609  eV     1   --> A              
     e( 50 - 50) =     10.05050  eV     1   --> A              
     e( 51 - 51) =     10.05937  eV     1   --> A              
     e( 52 - 52) =     10.09656  eV     1   --> A              
     e( 53 - 53) =     10.90494  eV     1   --> A              
     e( 54 - 54) =     10.90672  eV     1   --> A              
     e( 55 - 55) =     10.92429  eV     1   --> A              
     e( 56 - 56) =     10.94233  eV     1   --> A              
     e( 57 - 57) =     10.94283  eV     1   --> A              
     e( 58 - 58) =     10.95342  eV     1   --> A              
     e( 59 - 59) =     10.95961  eV     1   --> A              
     e( 60 - 60) =     10.96508  eV     1   --> A              
     e( 61 - 61) =     10.99269  eV     1   --> A              
     e( 62 - 62) =     10.99939  eV     1   --> A              
     e( 63 - 63) =     11.01061  eV     1   --> A              
     e( 64 - 64) =     11.01980  eV     1   --> A              
     e( 65 - 65) =     11.98699  eV     1   --> A              
     e( 66 - 66) =     12.00712  eV     1   --> A              
     e( 67 - 67) =     12.08067  eV     1   --> A              
     e( 68 - 68) =     12.16615  eV     1   --> A              
     e( 69 - 69) =     12.17752  eV     1   --> A              
     e( 70 - 70) =     12.20196  eV     1   --> A              
     e( 71 - 71) =     12.21109  eV     1   --> A              
     e( 72 - 72) =     12.25310  eV     1   --> A              
     e( 73 - 73) =     14.47650  eV     1   --> A              
     e( 74 - 74) =     14.54684  eV     1   --> A              
     e( 75 - 75) =     14.58094  eV     1   --> A              
     e( 76 - 76) =     14.63992  eV     1   --> A              
     e( 77 - 77) =     14.69508  eV     1   --> A              
     e( 78 - 78) =     14.83920  eV     1   --> A              
     e( 79 - 79) =     14.85060  eV     1   --> A              
     e( 80 - 80) =     14.85997  eV     1   --> A              
     e( 81 - 81) =     15.05511  eV     1   --> A              
     e( 82 - 82) =     15.10253  eV     1   --> A              
     e( 83 - 83) =     15.10866  eV     1   --> A              
     e( 84 - 84) =     15.18829  eV     1   --> A              
     e( 85 - 85) =     16.66731  eV     1   --> A              
     e( 86 - 86) =     16.69738  eV     1   --> A              
     e( 87 - 87) =     16.71182  eV     1   --> A              
     e( 88 - 88) =     16.81558  eV     1   --> A              
     e( 89 - 89) =     17.29985  eV     1   --> A              
     e( 90 - 90) =     17.38876  eV     1   --> A              
     e( 91 - 91) =     17.48013  eV     1   --> A              
     e( 92 - 92) =     17.64462  eV     1   --> A              

 **************************************************************************

 **************************************************************************

                    xk=(   0.35000,   0.32500,   0.52500  )

     Band symmetry, C_1 (1)     point group:

     e(  1 -  1) =    -36.09161  eV     1   --> A              
     e(  2 -  2) =    -36.09142  eV     1   --> A              
     e(  3 -  3) =    -36.09127  eV     1   --> A              
     e(  4 -  4) =    -36.02919  eV     1   --> A              
     e(  5 -  5) =    -14.19360  eV     1   --> A              
     e(  6 -  6) =    -14.18602  eV     1   --> A              
     e(  7 -  7) =    -14.18519  eV     1   --> A              
     e(  8 -  8) =    -14.18362  eV     1   --> A              
     e(  9 -  9) =    -14.16363  eV     1   --> A              
     e( 10 - 10) =    -14.16076  eV     1   --> A              
     e( 11 - 11) =    -14.15971  eV     1   --> A              
     e( 12 - 12) =    -14.15952  eV     1   --> A              
     e( 13 - 13) =    -14.15813  eV     1   --> A              
     e( 14 - 14) =    -14.11030  eV     1   --> A              
     e( 15 - 15) =    -14.10979  eV     1   --> A              
     e( 16 - 16) =    -14.10844  eV     1   --> A              
     e( 17 - 17) =     -7.75879  eV     1   --> A              
     e( 18 - 18) =     -7.75514  eV     1   --> A              
     e( 19 - 19) =     -7.75053  eV     1   --> A              
     e( 20 - 20) =     -7.75014  eV     1   --> A              
     e( 21 - 21) =     -7.74979  eV     1   --> A              
     e( 22 - 22) =     -7.74790  eV     1   --> A              
     e( 23 - 23) =     -7.74760  eV     1   --> A              
     e( 24 - 24) =     -7.74668  eV     1   --> A              
     e( 25 - 25) =     -7.74443  eV     1   --> A              
     e( 26 - 26) =     -7.74385  eV     1   --> A              
     e( 27 - 27) =     -7.74361  eV     1   --> A              
     e( 28 - 28) =     -7.73949  eV     1   --> A              
     e( 29 - 29) =     -7.73802  eV     1   --> A              
     e( 30 - 30) =     -7.73569  eV     1   --> A              
     e( 31 - 31) =     -7.73545  eV     1   --> A              
     e( 32 - 32) =     -7.73496  eV     1   --> A              
     e( 33 - 33) =     -7.73443  eV     1   --> A              
     e( 34 - 34) =     -7.73410  eV     1   --> A              
     e( 35 - 35) =     -7.73340  eV     1   --> A              
     e( 36 - 36) =     -7.73166  eV     1   --> A              
     e( 37 - 37) =      5.01893  eV     1   --> A              
     e( 38 - 38) =      5.13381  eV     1   --> A              
     e( 39 - 39) =      5.46679  eV     1   --> A              
     e( 40 - 40) =      5.47807  eV     1   --> A              
     e( 41 - 41) =      8.06226  eV     1   --> A              
     e( 42 - 42) =      8.07213  eV     1   --> A              
     e( 43 - 43) =      8.36950  eV     1   --> A              
     e( 44 - 44) =      8.48487  eV     1   --> A              
     e( 45 - 45) =      9.81642  eV     1   --> A              
     e( 46 - 46) =      9.82118  eV     1   --> A              
     e( 47 - 47) =      9.87573  eV     1   --> A              
     e( 48 - 48) =      9.91186  eV     1   --> A              
     e( 49 - 49) =     10.02448  eV     1   --> A              
     e( 50 - 50) =     10.03095  eV     1   --> A              
     e( 51 - 51) =     10.08234  eV     1   --> A              
     e( 52 - 52) =     10.10150  eV     1   --> A              
     e( 53 - 53) =     10.90447  eV     1   --> A              
     e( 54 - 54) =     10.90759  eV     1   --> A              
     e( 55 - 55) =     10.93244  eV     1   --> A              
     e( 56 - 56) =     10.93392  eV     1   --> A              
     e( 57 - 57) =     10.93585  eV     1   --> A              
     e( 58 - 58) =     10.93718  eV     1   --> A              
     e( 59 - 59) =     10.96272  eV     1   --> A              
     e( 60 - 60) =     10.96525  eV     1   --> A              
     e( 61 - 61) =     11.00196  eV     1   --> A              
     e( 62 - 62) =     11.00409  eV     1   --> A              
     e( 63 - 63) =     11.00726  eV     1   --> A              
     e( 64 - 64) =     11.01755  eV     1   --> A              
     e( 65 - 65) =     11.98857  eV     1   --> A              
     e( 66 - 66) =     11.99207  eV     1   --> A              
     e( 67 - 67) =     12.13248  eV     1   --> A              
     e( 68 - 68) =     12.16855  eV     1   --> A              
     e( 69 - 69) =     12.17232  eV     1   --> A              
     e( 70 - 70) =     12.18988  eV     1   --> A              
     e( 71 - 71) =     12.21712  eV     1   --> A              
     e( 72 - 72) =     12.23625  eV     1   --> A              
     e( 73 - 73) =     14.46987  eV     1   --> A              
     e( 74 - 74) =     14.50383  eV     1   --> A              
     e( 75 - 75) =     14.66699  eV     1   --> A              
     e( 76 - 76) =     14.68428  eV     1   --> A              
     e( 77 - 77) =     14.74683  eV     1   --> A              
     e( 78 - 78) =     14.78944  eV     1   --> A              
     e( 79 - 79) =     14.79847  eV     1   --> A              
     e( 80 - 80) =     14.81360  eV     1   --> A              
     e( 81 - 81) =     15.06724  eV     1   --> A              
     e( 82 - 82) =     15.08237  eV     1   --> A              
     e( 83 - 83) =     15.14546  eV     1   --> A              
     e( 84 - 84) =     15.19120  eV     1   --> A              
     e( 85 - 85) =     16.68622  eV     1   --> A              
     e( 86 - 86) =     16.71113  eV     1   --> A              
     e( 87 - 87) =     16.71435  eV     1   --> A              
     e( 88 - 88) =     16.75675  eV     1   --> A              
     e( 89 - 89) =     17.29647  eV     1   --> A              
     e( 90 - 90) =     17.31742  eV     1   --> A              
     e( 91 - 91) =     17.65143  eV     1   --> A              
     e( 92 - 92) =     17.73512  eV     1   --> A              

 **************************************************************************

 **************************************************************************

                    xk=(   0.32500,   0.33750,   0.48750  )

     Band symmetry, C_1 (1)     point group:

     e(  1 -  1) =    -36.09161  eV     1   --> A              
     e(  2 -  2) =    -36.09143  eV     1   --> A              
     e(  3 -  3) =    -36.09126  eV     1   --> A              
     e(  4 -  4) =    -36.02919  eV     1   --> A              
     e(  5 -  5) =    -14.19333  eV     1   --> A              
     e(  6 -  6) =    -14.18577  eV     1   --> A              
     e(  7 -  7) =    -14.18503  eV     1   --> A              
     e(  8 -  8) =    -14.18325  eV     1   --> A              
     e(  9 -  9) =    -14.16391  eV     1   --> A              
     e( 10 - 10) =    -14.16058  eV     1   --> A              
     e( 11 - 11) =    -14.15996  eV     1   --> A              
     e( 12 - 12) =    -14.15957  eV     1   --> A              
     e( 13 - 13) =    -14.15803  eV     1   --> A              
     e( 14 - 14) =    -14.11030  eV     1   --> A              
     e( 15 - 15) =    -14.10984  eV     1   --> A              
     e( 16 - 16) =    -14.10836  eV     1   --> A              
     e( 17 - 17) =     -7.75911  eV     1   --> A              
     e( 18 - 18) =     -7.75523  eV     1   --> A              
     e( 19 - 19) =     -7.75084  eV     1   --> A              
     e( 20 - 20) =     -7.75042  eV     1   --> A              
     e( 21 - 21) =     -7.75004  eV     1   --> A              
     e( 22 - 22) =     -7.74802  eV     1   --> A              
     e( 23 - 23) =     -7.74768  eV     1   --> A              
     e( 24 - 24) =     -7.74671  eV     1   --> A              
     e( 25 - 25) =     -7.74451  eV     1   --> A              
     e( 26 - 26) =     -7.74396  eV     1   --> A              
     e( 27 - 27) =     -7.74364  eV     1   --> A              
     e( 28 - 28) =     -7.73945  eV     1   --> A              
     e( 29 - 29) =     -7.73825  eV     1   --> A              
     e( 30 - 30) =     -7.73564  eV     1   --> A              
     e( 31 - 31) =     -7.73548  eV     1   --> A              
     e( 32 - 32) =     -7.73497  eV     1   --> A              
     e( 33 - 33) =     -7.73444  eV     1   --> A              
     e( 34 - 34) =     -7.73420  eV     1   --> A              
     e( 35 - 35) =     -7.73348  eV     1   --> A              
     e( 36 - 36) =     -7.73155  eV     1   --> A              
     e( 37 - 37) =      5.02486  eV     1   --> A              
     e( 38 - 38) =      5.08369  eV     1   --> A              
     e( 39 - 39) =      5.47486  eV     1   --> A              
     e( 40 - 40) =      5.48035  eV     1   --> A              
     e( 41 - 41) =      8.07510  eV     1   --> A              
     e( 42 - 42) =      8.08044  eV     1   --> A              
     e( 43 - 43) =      8.42984  eV     1   --> A              
     e( 44 - 44) =      8.48919  eV     1   --> A              
     e( 45 - 45) =      9.80844  eV     1   --> A              
     e( 46 - 46) =      9.81313  eV     1   --> A              
     e( 47 - 47) =      9.88339  eV     1   --> A              
     e( 48 - 48) =      9.90227  eV     1   --> A              
     e( 49 - 49) =     10.02846  eV     1   --> A              
     e( 50 - 50) =     10.03359  eV     1   --> A              
     e( 51 - 51) =     10.09790  eV     1   --> A              
     e( 52 - 52) =     10.10911  eV     1   --> A              
     e( 53 - 53) =     10.90601  eV     1   --> A              
     e( 54 - 54) =     10.90873  eV     1   --> A              
     e( 55 - 55) =     10.93110  eV     1   --> A              
     e( 56 - 56) =     10.93331  eV     1   --> A              
     e( 57 - 57) =     10.93602  eV     1   --> A              
     e( 58 - 58) =     10.93688  eV     1   --> A              
     e( 59 - 59) =     10.96483  eV     1   --> A              
     e( 60 - 60) =     10.96739  eV     1   --> A              
     e( 61 - 61) =     11.00796  eV     1   --> A              
     e( 62 - 62) =     11.00906  eV     1   --> A              
     e( 63 - 63) =     11.01530  eV     1   --> A              
     e( 64 - 64) =     11.02085  eV     1   --> A              
     e( 65 - 65) =     11.97311  eV     1   --> A              
     e( 66 - 66) =     11.97507  eV     1   --> A              
     e( 67 - 67) =     12.14293  eV     1   --> A              
     e( 68 - 68) =     12.16395  eV     1   --> A              
     e( 69 - 69) =     12.16711  eV     1   --> A              
     e( 70 - 70) =     12.17321  eV     1   --> A              
     e( 71 - 71) =     12.21985  eV     1   --> A              
     e( 72 - 72) =     12.22956  eV     1   --> A              
     e( 73 - 73) =     14.45357  eV     1   --> A              
     e( 74 - 74) =     14.47377  eV     1   --> A              
     e( 75 - 75) =     14.68632  eV     1   --> A              
     e( 76 - 76) =     14.69279  eV     1   --> A              
     e( 77 - 77) =     14.75571  eV     1   --> A              
     e( 78 - 78) =     14.76525  eV     1   --> A              
     e( 79 - 79) =     14.76921  eV     1   --> A              
     e( 80 - 80) =     14.79212  eV     1   --> A              
     e( 81 - 81) =     15.06847  eV     1   --> A              
     e( 82 - 82) =     15.08254  eV     1   --> A              
     e( 83 - 83) =     15.16559  eV     1   --> A              
     e( 84 - 84) =     15.19147  eV     1   --> A              
     e( 85 - 85) =     16.72405  eV     1   --> A              
     e( 86 - 86) =     16.72850  eV     1   --> A              
     e( 87 - 87) =     16.73038  eV     1   --> A              
     e( 88 - 88) =     16.76384  eV     1   --> A              
     e( 89 - 89) =     17.25185  eV     1   --> A              
     e( 90 - 90) =     17.26394  eV     1   --> A              
     e( 91 - 91) =     17.67997  eV     1   --> A              
     e( 92 - 92) =     17.74285  eV     1   --> A              

 **************************************************************************

 **************************************************************************

                    xk=(   0.30000,   0.35000,   0.45000  )

     Band symmetry, C_1 (1)     point group:

     e(  1 -  1) =    -36.09167  eV     1   --> A              
     e(  2 -  2) =    -36.09139  eV     1   --> A              
     e(  3 -  3) =    -36.09124  eV     1   --> A              
     e(  4 -  4) =    -36.02919  eV     1   --> A              
     e(  5 -  5) =    -14.19279  eV     1   --> A              
     e(  6 -  6) =    -14.18549  eV     1   --> A              
     e(  7 -  7) =    -14.18425  eV     1   --> A              
     e(  8 -  8) =    -14.18254  eV     1   --> A              
     e(  9 -  9) =    -14.16427  eV     1   --> A              
     e( 10 - 10) =    -14.16152  eV     1   --> A              
     e( 11 - 11) =    -14.15964  eV     1   --> A              
     e( 12 - 12) =    -14.15929  eV     1   --> A              
     e( 13 - 13) =    -14.15799  eV     1   --> A              
     e( 14 - 14) =    -14.11050  eV     1   --> A              
     e( 15 - 15) =    -14.10964  eV     1   --> A              
     e( 16 - 16) =    -14.10828  eV     1   --> A              
     e( 17 - 17) =     -7.75977  eV     1   --> A              
     e( 18 - 18) =     -7.75553  eV     1   --> A              
     e( 19 - 19) =     -7.75152  eV     1   --> A              
     e( 20 - 20) =     -7.75098  eV     1   --> A              
     e( 21 - 21) =     -7.75055  eV     1   --> A              
     e( 22 - 22) =     -7.74815  eV     1   --> A              
     e( 23 - 23) =     -7.74782  eV     1   --> A              
     e( 24 - 24) =     -7.74687  eV     1   --> A              
     e( 25 - 25) =     -7.74473  eV     1   --> A              
     e( 26 - 26) =     -7.74426  eV     1   --> A              
     e( 27 - 27) =     -7.74390  eV     1   --> A              
     e( 28 - 28) =     -7.73959  eV     1   --> A              
     e( 29 - 29) =     -7.73828  eV     1   --> A              
     e( 30 - 30) =     -7.73605  eV     1   --> A              
     e( 31 - 31) =     -7.73571  eV     1   --> A              
     e( 32 - 32) =     -7.73509  eV     1   --> A              
     e( 33 - 33) =     -7.73451  eV     1   --> A              
     e( 34 - 34) =     -7.73394  eV     1   --> A              
     e( 35 - 35) =     -7.73331  eV     1   --> A              
     e( 36 - 36) =     -7.73149  eV     1   --> A              
     e( 37 - 37) =      4.91372  eV     1   --> A              
     e( 38 - 38) =      5.15001  eV     1   --> A              
     e( 39 - 39) =      5.44277  eV     1   --> A              
     e( 40 - 40) =      5.48187  eV     1   --> A              
     e( 41 - 41) =      8.10761  eV     1   --> A              
     e( 42 - 42) =      8.13936  eV     1   --> A              
     e( 43 - 43) =      8.39151  eV     1   --> A              
     e( 44 - 44) =      8.62994  eV     1   --> A              
     e( 45 - 45) =      9.79232  eV     1   --> A              
     e( 46 - 46) =      9.80012  eV     1   --> A              
     e( 47 - 47) =      9.85662  eV     1   --> A              
     e( 48 - 48) =      9.92862  eV     1   --> A              
     e( 49 - 49) =     10.04029  eV     1   --> A              
     e( 50 - 50) =     10.05649  eV     1   --> A              
     e( 51 - 51) =     10.09293  eV     1   --> A              
     e( 52 - 52) =     10.12936  eV     1   --> A              
     e( 53 - 53) =     10.90599  eV     1   --> A              
     e( 54 - 54) =     10.90745  eV     1   --> A              
     e( 55 - 55) =     10.93192  eV     1   --> A              
     e( 56 - 56) =     10.93915  eV     1   --> A              
     e( 57 - 57) =     10.94279  eV     1   --> A              
     e( 58 - 58) =     10.94789  eV     1   --> A              
     e( 59 - 59) =     10.96740  eV     1   --> A              
     e( 60 - 60) =     10.97267  eV     1   --> A              
     e( 61 - 61) =     11.01255  eV     1   --> A              
     e( 62 - 62) =     11.01691  eV     1   --> A              
     e( 63 - 63) =     11.02395  eV     1   --> A              
     e( 64 - 64) =     11.03437  eV     1   --> A              
     e( 65 - 65) =     11.94361  eV     1   --> A              
     e( 66 - 66) =     11.95521  eV     1   --> A              
     e( 67 - 67) =     12.07791  eV     1   --> A              
     e( 68 - 68) =     12.15318  eV     1   --> A              
     e( 69 - 69) =     12.16129  eV     1   --> A              
     e( 70 - 70) =     12.19427  eV     1   --> A              
     e( 71 - 71) =     12.20098  eV     1   --> A              
     e( 72 - 72) =     12.24475  eV     1   --> A              
     e( 73 - 73) =     14.41202  eV     1   --> A              
     e( 74 - 74) =     14.47638  eV     1   --> A              
     e( 75 - 75) =     14.58279  eV     1   --> A              
     e( 76 - 76) =     14.62461  eV     1   --> A              
     e( 77 - 77) =     14.69656  eV     1   --> A              
     e( 78 - 78) =     14.80870  eV     1   --> A              
     e( 79 - 79) =     14.82119  eV     1   --> A              
     e( 80 - 80) =     14.83351  eV     1   --> A              
     e( 81 - 81) =     15.06381  eV     1   --> A              
     e( 82 - 82) =     15.09400  eV     1   --> A              
     e( 83 - 83) =     15.13476  eV     1   --> A              
     e( 84 - 84) =     15.21685  eV     1   --> A              
     e( 85 - 85) =     16.72799  eV     1   --> A              
     e( 86 - 86) =     16.73837  eV     1   --> A              
     e( 87 - 87) =     16.74529  eV     1   --> A              
     e( 88 - 88) =     16.88809  eV     1   --> A              
     e( 89 - 89) =     17.16256  eV     1   --> A              
     e( 90 - 90) =     17.23993  eV     1   --> A              
     e( 91 - 91) =     17.44864  eV     1   --> A              
     e( 92 - 92) =     17.67069  eV     1   --> A              

 **************************************************************************

 **************************************************************************

                    xk=(   0.27500,   0.36250,   0.41250  )

     Band symmetry, C_1 (1)     point group:

     e(  1 -  1) =    -36.09173  eV     1   --> A              
     e(  2 -  2) =    -36.09134  eV     1   --> A              
     e(  3 -  3) =    -36.09124  eV     1   --> A              
     e(  4 -  4) =    -36.02920  eV     1   --> A              
     e(  5 -  5) =    -14.19202  eV     1   --> A              
     e(  6 -  6) =    -14.18500  eV     1   --> A              
     e(  7 -  7) =    -14.18317  eV     1   --> A              
     e(  8 -  8) =    -14.18144  eV     1   --> A              
     e(  9 -  9) =    -14.16479  eV     1   --> A              
     e( 10 - 10) =    -14.16250  eV     1   --> A              
     e( 11 - 11) =    -14.15969  eV     1   --> A              
     e( 12 - 12) =    -14.15870  eV     1   --> A              
     e( 13 - 13) =    -14.15802  eV     1   --> A              
     e( 14 - 14) =    -14.11070  eV     1   --> A              
     e( 15 - 15) =    -14.10943  eV     1   --> A              
     e( 16 - 16) =    -14.10815  eV     1   --> A              
     e( 17 - 17) =     -7.76074  eV     1   --> A              
     e( 18 - 18) =     -7.75600  eV     1   --> A              
     e( 19 - 19) =     -7.75256  eV     1   --> A              
     e( 20 - 20) =     -7.75177  eV     1   --> A              
     e( 21 - 21) =     -7.75136  eV     1   --> A              
     e( 22 - 22) =     -7.74832  eV     1   --> A              
     e( 23 - 23) =     -7.74804  eV     1   --> A              
     e( 24 - 24) =     -7.74720  eV     1   --> A              
     e( 25 - 25) =     -7.74505  eV     1   --> A              
     e( 26 - 26) =     -7.74468  eV     1   --> A              
     e( 27 - 27) =     -7.74440  eV     1   --> A              
     e( 28 - 28) =     -7.73990  eV     1   --> A              
     e( 29 - 29) =     -7.73812  eV     1   --> A              
     e( 30 - 30) =     -7.73682  eV     1   --> A              
     e( 31 - 31) =     -7.73608  eV     1   --> A              
     e( 32 - 32) =     -7.73510  eV     1   --> A              
     e( 33 - 33) =     -7.73456  eV     1   --> A              
     e( 34 - 34) =     -7.73360  eV     1   --> A              
     e( 35 - 35) =     -7.73298  eV     1   --> A              
     e( 36 - 36) =     -7.73145  eV     1   --> A              
     e( 37 - 37) =      4.80419  eV     1   --> A              
     e( 38 - 38) =      5.21589  eV     1   --> A              
     e( 39 - 39) =      5.37384  eV     1   --> A              
     e( 40 - 40) =      5.48599  eV     1   --> A              
     e( 41 - 41) =      8.15553  eV     1   --> A              
     e( 42 - 42) =      8.24283  eV     1   --> A              
     e( 43 - 43) =      8.37263  eV     1   --> A              
     e( 44 - 44) =      8.78474  eV     1   --> A              
     e( 45 - 45) =      9.76548  eV     1   --> A              
     e( 46 - 46) =      9.79217  eV     1   --> A              
     e( 47 - 47) =      9.82863  eV     1   --> A              
     e( 48 - 48) =      9.94956  eV     1   --> A              
     e( 49 - 49) =     10.05604  eV     1   --> A              
     e( 50 - 50) =     10.09535  eV     1   --> A              
     e( 51 - 51) =     10.09968  eV     1   --> A              
     e( 52 - 52) =     10.14407  eV     1   --> A              
     e( 53 - 53) =     10.90346  eV     1   --> A              
     e( 54 - 54) =     10.91106  eV     1   --> A              
     e( 55 - 55) =     10.92528  eV     1   --> A              
     e( 56 - 56) =     10.94669  eV     1   --> A              
     e( 57 - 57) =     10.95237  eV     1   --> A              
     e( 58 - 58) =     10.96847  eV     1   --> A              
     e( 59 - 59) =     10.97417  eV     1   --> A              
     e( 60 - 60) =     10.98968  eV     1   --> A              
     e( 61 - 61) =     11.01013  eV     1   --> A              
     e( 62 - 62) =     11.02763  eV     1   --> A              
     e( 63 - 63) =     11.04446  eV     1   --> A              
     e( 64 - 64) =     11.04965  eV     1   --> A              
     e( 65 - 65) =     11.90009  eV     1   --> A              
     e( 66 - 66) =     11.93464  eV     1   --> A              
     e( 67 - 67) =     12.00043  eV     1   --> A              
     e( 68 - 68) =     12.13492  eV     1   --> A              
     e( 69 - 69) =     12.15668  eV     1   --> A              
     e( 70 - 70) =     12.17806  eV     1   --> A              
     e( 71 - 71) =     12.19427  eV     1   --> A              
     e( 72 - 72) =     12.26378  eV     1   --> A              
     e( 73 - 73) =     14.37658  eV     1   --> A              
     e( 74 - 74) =     14.46565  eV     1   --> A              
     e( 75 - 75) =     14.47315  eV     1   --> A              
     e( 76 - 76) =     14.54803  eV     1   --> A              
     e( 77 - 77) =     14.63218  eV     1   --> A              
     e( 78 - 78) =     14.84578  eV     1   --> A              
     e( 79 - 79) =     14.86014  eV     1   --> A              
     e( 80 - 80) =     14.86800  eV     1   --> A              
     e( 81 - 81) =     15.05135  eV     1   --> A              
     e( 82 - 82) =     15.11450  eV     1   --> A              
     e( 83 - 83) =     15.13134  eV     1   --> A              
     e( 84 - 84) =     15.21489  eV     1   --> A              
     e( 85 - 85) =     16.71048  eV     1   --> A              
     e( 86 - 86) =     16.75896  eV     1   --> A              
     e( 87 - 87) =     16.76283  eV     1   --> A              
     e( 88 - 88) =     17.04072  eV     1   --> A              
     e( 89 - 89) =     17.05424  eV     1   --> A              
     e( 90 - 90) =     17.19879  eV     1   --> A              
     e( 91 - 91) =     17.26422  eV     1   --> A              
     e( 92 - 92) =     17.55242  eV     1   --> A              

 **************************************************************************

 **************************************************************************

                    xk=(   0.25000,   0.37500,   0.37500  )

     point group C_s (m)    
     there are  2 classes
     the character table:

       E     s    
A'     1.00  1.00
A''    1.00 -1.00

     the symmetry operations in each class and the name of the first element:

     E        1
                                                                 
     s        2
                                                                 

     Band symmetry, C_s (m)     point group:

     e(  1 -  1) =    -36.09182  eV     1   --> A'             
     e(  2 -  2) =    -36.09133  eV     1   --> A''            
     e(  3 -  3) =    -36.09123  eV     1   --> A'             
     e(  4 -  4) =    -36.02922  eV     1   --> A'             
     e(  5 -  5) =    -14.19105  eV     1   --> A'             
     e(  6 -  6) =    -14.18425  eV     1   --> A'             
     e(  7 -  7) =    -14.18203  eV     1   --> A''            
     e(  8 -  8) =    -14.17990  eV     1   --> A'             
     e(  9 -  9) =    -14.16566  eV     1   --> A'             
     e( 10 - 10) =    -14.16328  eV     1   --> A''            
     e( 11 - 11) =    -14.15980  eV     1   --> A''            
     e( 12 - 13) =    -14.15817  eV     2   --> A'             
     e( 12 - 13) =    -14.15817  eV     2   --> A''            
     e( 14 - 14) =    -14.11083  eV     1   --> A'             
     e( 15 - 15) =    -14.10929  eV     1   --> A''            
     e( 16 - 16) =    -14.10792  eV     1   --> A'             
     e( 17 - 17) =     -7.76202  eV     1   --> A'             
     e( 18 - 18) =     -7.75663  eV     1   --> A''            
     e( 19 - 19) =     -7.75389  eV     1   --> A'             
     e( 20 - 20) =     -7.75282  eV     1   --> A''            
     e( 21 - 21) =     -7.75248  eV     1   --> A'             
     e( 22 - 22) =     -7.74865  eV     1   --> A''            
     e( 23 - 23) =     -7.74841  eV     1   --> A'             
     e( 24 - 24) =     -7.74761  eV     1   --> A''            
     e( 25 - 25) =     -7.74548  eV     1   --> A'             
     e( 26 - 27) =     -7.74511  eV     2   --> A'             
     e( 26 - 27) =     -7.74511  eV     2   --> A''            
     e( 28 - 28) =     -7.74033  eV     1   --> A'             
     e( 29 - 29) =     -7.73791  eV     1   --> A'             
     e( 30 - 30) =     -7.73768  eV     1   --> A''            
     e( 31 - 31) =     -7.73643  eV     1   --> A'             
     e( 32 - 32) =     -7.73509  eV     1   --> A'             
     e( 33 - 33) =     -7.73453  eV     1   --> A''            
     e( 34 - 34) =     -7.73336  eV     1   --> A''            
     e( 35 - 35) =     -7.73262  eV     1   --> A'             
     e( 36 - 36) =     -7.73130  eV     1   --> A''            
     e( 37 - 37) =      4.69980  eV     1   --> A'             
     e( 38 - 38) =      5.27698  eV     1   --> A'             
     e( 39 - 39) =      5.28105  eV     1   --> A''            
     e( 40 - 40) =      5.49135  eV     1   --> A'             
     e( 41 - 41) =      8.21925  eV     1   --> A'             
     e( 42 - 42) =      8.37262  eV     1   --> A''            
     e( 43 - 43) =      8.37785  eV     1   --> A'             
     e( 44 - 44) =      8.94431  eV     1   --> A'             
     e( 45 - 45) =      9.72976  eV     1   --> A'             
     e( 46 - 46) =      9.79563  eV     1   --> A'             
     e( 47 - 47) =      9.79783  eV     1   --> A''            
     e( 48 - 48) =      9.95837  eV     1   --> A''            
     e( 49 - 49) =     10.07709  eV     1   --> A''            
     e( 50 - 50) =     10.12095  eV     1   --> A'             
     e( 51 - 51) =     10.15472  eV     1   --> A''            
     e( 52 - 52) =     10.15561  eV     1   --> A'             
     e( 53 - 53) =     10.90064  eV     1   --> A'             
     e( 54 - 54) =     10.91809  eV     1   --> A'             
     e( 55 - 55) =     10.91904  eV     1   --> A''            
     e( 56 - 56) =     10.94565  eV     1   --> A'             
     e( 57 - 57) =     10.96800  eV     1   --> A''            
     e( 58 - 58) =     10.97000  eV     1   --> A'             
     e( 59 - 59) =     11.00280  eV     1   --> A'             
     e( 60 - 60) =     11.01024  eV     1   --> A''            
     e( 61 - 61) =     11.01414  eV     1   --> A''            
     e( 62 - 62) =     11.04485  eV     1   --> A'             
     e( 63 - 63) =     11.06682  eV     1   --> A''            
     e( 64 - 64) =     11.06926  eV     1   --> A'             
     e( 65 - 65) =     11.84392  eV     1   --> A'             
     e( 66 - 66) =     11.91382  eV     1   --> A''            
     e( 67 - 67) =     11.91483  eV     1   --> A'             
     e( 68 - 68) =     12.11230  eV     1   --> A''            
     e( 69 - 69) =     12.15175  eV     1   --> A''            
     e( 70 - 70) =     12.15307  eV     1   --> A'             
     e( 71 - 71) =     12.18078  eV     1   --> A'             
     e( 72 - 72) =     12.27802  eV     1   --> A''            
     e( 73 - 73) =     14.34732  eV     1   --> A''            
     e( 74 - 74) =     14.34988  eV     1   --> A'             
     e( 75 - 75) =     14.43696  eV     1   --> A''            
     e( 76 - 76) =     14.47403  eV     1   --> A'             
     e( 77 - 77) =     14.58752  eV     1   --> A'             
     e( 78 - 78) =     14.86196  eV     1   --> A''            
     e( 79 - 79) =     14.87597  eV     1   --> A'             
     e( 80 - 80) =     14.88152  eV     1   --> A''            
     e( 81 - 81) =     15.05129  eV     1   --> A'             
     e( 82 - 82) =     15.12059  eV     1   --> A'             
     e( 83 - 83) =     15.18739  eV     1   --> A''            
     e( 84 - 84) =     15.19284  eV     1   --> A'             
     e( 85 - 85) =     16.63569  eV     1   --> A'             
     e( 86 - 86) =     16.78449  eV     1   --> A'             
     e( 87 - 87) =     16.78656  eV     1   --> A''            
     e( 88 - 88) =     16.95145  eV     1   --> A'             
     e( 89 - 89) =     16.95192  eV     1   --> A''            
     e( 90 - 90) =     17.19891  eV     1   --> A'             
     e( 91 - 91) =     17.21677  eV     1   --> A''            
     e( 92 - 92) =     17.53251  eV     1   --> A'             

 **************************************************************************

 **************************************************************************

                    xk=(   0.22500,   0.38750,   0.33750  )

     point group C_1 (1)    
     there are  1 classes
     the character table:

       E    
A      1.00

     the symmetry operations in each class and the name of the first element:

     E        1
                                                                 

     Band symmetry, C_1 (1)     point group:

     e(  1 -  1) =    -36.09188  eV     1   --> A              
     e(  2 -  2) =    -36.09133  eV     1   --> A              
     e(  3 -  3) =    -36.09119  eV     1   --> A              
     e(  4 -  4) =    -36.02922  eV     1   --> A              
     e(  5 -  5) =    -14.18989  eV     1   --> A              
     e(  6 -  6) =    -14.18326  eV     1   --> A              
     e(  7 -  7) =    -14.18091  eV     1   --> A              
     e(  8 -  8) =    -14.17803  eV     1   --> A              
     e(  9 -  9) =    -14.16690  eV     1   --> A              
     e( 10 - 10) =    -14.16371  eV     1   --> A              
     e( 11 - 11) =    -14.16000  eV     1   --> A              
     e( 12 - 12) =    -14.15832  eV     1   --> A              
     e( 13 - 13) =    -14.15758  eV     1   --> A              
     e( 14 - 14) =    -14.11092  eV     1   --> A              
     e( 15 - 15) =    -14.10919  eV     1   --> A              
     e( 16 - 16) =    -14.10758  eV     1   --> A              
     e( 17 - 17) =     -7.76356  eV     1   --> A              
     e( 18 - 18) =     -7.75736  eV     1   --> A              
     e( 19 - 19) =     -7.75544  eV     1   --> A              
     e( 20 - 20) =     -7.75422  eV     1   --> A              
     e( 21 - 21) =     -7.75380  eV     1   --> A              
     e( 22 - 22) =     -7.74944  eV     1   --> A              
     e( 23 - 23) =     -7.74882  eV     1   --> A              
     e( 24 - 24) =     -7.74790  eV     1   --> A              
     e( 25 - 25) =     -7.74604  eV     1   --> A              
     e( 26 - 26) =     -7.74578  eV     1   --> A              
     e( 27 - 27) =     -7.74536  eV     1   --> A              
     e( 28 - 28) =     -7.74099  eV     1   --> A              
     e( 29 - 29) =     -7.73849  eV     1   --> A              
     e( 30 - 30) =     -7.73767  eV     1   --> A              
     e( 31 - 31) =     -7.73667  eV     1   --> A              
     e( 32 - 32) =     -7.73520  eV     1   --> A              
     e( 33 - 33) =     -7.73432  eV     1   --> A              
     e( 34 - 34) =     -7.73324  eV     1   --> A              
     e( 35 - 35) =     -7.73245  eV     1   --> A              
     e( 36 - 36) =     -7.73084  eV     1   --> A              
     e( 37 - 37) =      4.60336  eV     1   --> A              
     e( 38 - 38) =      5.16824  eV     1   --> A              
     e( 39 - 39) =      5.33728  eV     1   --> A              
     e( 40 - 40) =      5.49766  eV     1   --> A              
     e( 41 - 41) =      8.29762  eV     1   --> A              
     e( 42 - 42) =      8.40053  eV     1   --> A              
     e( 43 - 43) =      8.52005  eV     1   --> A              
     e( 44 - 44) =      9.09585  eV     1   --> A              
     e( 45 - 45) =      9.68768  eV     1   --> A              
     e( 46 - 46) =      9.75874  eV     1   --> A              
     e( 47 - 47) =      9.82084  eV     1   --> A              
     e( 48 - 48) =      9.96483  eV     1   --> A              
     e( 49 - 49) =     10.10333  eV     1   --> A              
     e( 50 - 50) =     10.16577  eV     1   --> A              
     e( 51 - 51) =     10.16940  eV     1   --> A              
     e( 52 - 52) =     10.22045  eV     1   --> A              
     e( 53 - 53) =     10.89937  eV     1   --> A              
     e( 54 - 54) =     10.91304  eV     1   --> A              
     e( 55 - 55) =     10.92557  eV     1   --> A              
     e( 56 - 56) =     10.94178  eV     1   --> A              
     e( 57 - 57) =     10.96951  eV     1   --> A              
     e( 58 - 58) =     10.98609  eV     1   --> A              
     e( 59 - 59) =     11.00295  eV     1   --> A              
     e( 60 - 60) =     11.03136  eV     1   --> A              
     e( 61 - 61) =     11.04189  eV     1   --> A              
     e( 62 - 62) =     11.07617  eV     1   --> A              
     e( 63 - 63) =     11.09104  eV     1   --> A              
     e( 64 - 64) =     11.09342  eV     1   --> A              
     e( 65 - 65) =     11.77564  eV     1   --> A              
     e( 66 - 66) =     11.82203  eV     1   --> A              
     e( 67 - 67) =     11.89616  eV     1   --> A              
     e( 68 - 68) =     12.08936  eV     1   --> A              
     e( 69 - 69) =     12.12665  eV     1   --> A              
     e( 70 - 70) =     12.14770  eV     1   --> A              
     e( 71 - 71) =     12.15899  eV     1   --> A              
     e( 72 - 72) =     12.28310  eV     1   --> A              
     e( 73 - 73) =     14.23278  eV     1   --> A              
     e( 74 - 74) =     14.32698  eV     1   --> A              
     e( 75 - 75) =     14.35999  eV     1   --> A              
     e( 76 - 76) =     14.40611  eV     1   --> A              
     e( 77 - 77) =     14.57294  eV     1   --> A              
     e( 78 - 78) =     14.84424  eV     1   --> A              
     e( 79 - 79) =     14.87245  eV     1   --> A              
     e( 80 - 80) =     14.87583  eV     1   --> A              
     e( 81 - 81) =     15.07452  eV     1   --> A              
     e( 82 - 82) =     15.15458  eV     1   --> A              
     e( 83 - 83) =     15.16103  eV     1   --> A              
     e( 84 - 84) =     15.26345  eV     1   --> A              
     e( 85 - 85) =     16.52539  eV     1   --> A              
     e( 86 - 86) =     16.66203  eV     1   --> A              
     e( 87 - 87) =     16.80654  eV     1   --> A              
     e( 88 - 88) =     16.82238  eV     1   --> A              
     e( 89 - 89) =     16.87324  eV     1   --> A              
     e( 90 - 90) =     17.02646  eV     1   --> A              
     e( 91 - 91) =     17.32164  eV     1   --> A              
     e( 92 - 92) =     17.66990  eV     1   --> A              

 **************************************************************************

 **************************************************************************

                    xk=(   0.20000,   0.40000,   0.30000  )

     Band symmetry, C_1 (1)     point group:

     e(  1 -  1) =    -36.09194  eV     1   --> A              
     e(  2 -  2) =    -36.09133  eV     1   --> A              
     e(  3 -  3) =    -36.09109  eV     1   --> A              
     e(  4 -  4) =    -36.02921  eV     1   --> A              
     e(  5 -  5) =    -14.18857  eV     1   --> A              
     e(  6 -  6) =    -14.18209  eV     1   --> A              
     e(  7 -  7) =    -14.17983  eV     1   --> A              
     e(  8 -  8) =    -14.17607  eV     1   --> A              
     e(  9 -  9) =    -14.16834  eV     1   --> A              
     e( 10 - 10) =    -14.16392  eV     1   --> A              
     e( 11 - 11) =    -14.16030  eV     1   --> A              
     e( 12 - 12) =    -14.15855  eV     1   --> A              
     e( 13 - 13) =    -14.15702  eV     1   --> A              
     e( 14 - 14) =    -14.11103  eV     1   --> A              
     e( 15 - 15) =    -14.10900  eV     1   --> A              
     e( 16 - 16) =    -14.10718  eV     1   --> A              
     e( 17 - 17) =     -7.76531  eV     1   --> A              
     e( 18 - 18) =     -7.75817  eV     1   --> A              
     e( 19 - 19) =     -7.75715  eV     1   --> A              
     e( 20 - 20) =     -7.75590  eV     1   --> A              
     e( 21 - 21) =     -7.75528  eV     1   --> A              
     e( 22 - 22) =     -7.75050  eV     1   --> A              
     e( 23 - 23) =     -7.74942  eV     1   --> A              
     e( 24 - 24) =     -7.74805  eV     1   --> A              
     e( 25 - 25) =     -7.74675  eV     1   --> A              
[...]
     e( 81 - 81) =     15.05604  eV     1   --> A              
     e( 82 - 82) =     15.12714  eV     1   --> A              
     e( 83 - 83) =     15.15503  eV     1   --> A              
     e( 84 - 84) =     15.22700  eV     1   --> A              
     e( 85 - 85) =     16.63513  eV     1   --> A              
     e( 86 - 86) =     16.77135  eV     1   --> A              
     e( 87 - 87) =     16.79690  eV     1   --> A              
     e( 88 - 88) =     16.90725  eV     1   --> A              
     e( 89 - 89) =     17.00569  eV     1   --> A              
     e( 90 - 90) =     17.17766  eV     1   --> A              
     e( 91 - 91) =     17.19581  eV     1   --> A              
     e( 92 - 92) =     17.57089  eV     1   --> A              

 **************************************************************************

 **************************************************************************

                    xk=(   0.75000,   0.38750,   0.36250  )

     Band symmetry, C_1 (1)     point group:

     e(  1 -  1) =    -36.09180  eV     1   --> A              
     e(  2 -  2) =    -36.09134  eV     1   --> A              
     e(  3 -  3) =    -36.09122  eV     1   --> A              
     e(  4 -  4) =    -36.02921  eV     1   --> A              
     e(  5 -  5) =    -14.19102  eV     1   --> A              
     e(  6 -  6) =    -14.18422  eV     1   --> A              
     e(  7 -  7) =    -14.18203  eV     1   --> A              
     e(  8 -  8) =    -14.17986  eV     1   --> A              
     e(  9 -  9) =    -14.16570  eV     1   --> A              
     e( 10 - 10) =    -14.16324  eV     1   --> A              
     e( 11 - 11) =    -14.15981  eV     1   --> A              
     e( 12 - 12) =    -14.15832  eV     1   --> A              
     e( 13 - 13) =    -14.15796  eV     1   --> A              
     e( 14 - 14) =    -14.11083  eV     1   --> A              
     e( 15 - 15) =    -14.10930  eV     1   --> A              
     e( 16 - 16) =    -14.10791  eV     1   --> A              
     e( 17 - 17) =     -7.76205  eV     1   --> A              
     e( 18 - 18) =     -7.75663  eV     1   --> A              
     e( 19 - 19) =     -7.75391  eV     1   --> A              
     e( 20 - 20) =     -7.75286  eV     1   --> A              
     e( 21 - 21) =     -7.75250  eV     1   --> A              
     e( 22 - 22) =     -7.74871  eV     1   --> A              
     e( 23 - 23) =     -7.74840  eV     1   --> A              
     e( 24 - 24) =     -7.74759  eV     1   --> A              
     e( 25 - 25) =     -7.74548  eV     1   --> A              
     e( 26 - 26) =     -7.74518  eV     1   --> A              
     e( 27 - 27) =     -7.74498  eV     1   --> A              
     e( 28 - 28) =     -7.74035  eV     1   --> A              
     e( 29 - 29) =     -7.73804  eV     1   --> A              
     e( 30 - 30) =     -7.73754  eV     1   --> A              
     e( 31 - 31) =     -7.73643  eV     1   --> A              
     e( 32 - 32) =     -7.73511  eV     1   --> A              
     e( 33 - 33) =     -7.73451  eV     1   --> A              
     e( 34 - 34) =     -7.73338  eV     1   --> A              
     e( 35 - 35) =     -7.73265  eV     1   --> A              
     e( 36 - 36) =     -7.73126  eV     1   --> A              
     e( 37 - 37) =      4.70055  eV     1   --> A              
     e( 38 - 38) =      5.23619  eV     1   --> A              
     e( 39 - 39) =      5.31882  eV     1   --> A              
     e( 40 - 40) =      5.49147  eV     1   --> A              
     e( 41 - 41) =      8.22046  eV     1   --> A              
     e( 42 - 42) =      8.34588  eV     1   --> A              
     e( 43 - 43) =      8.40970  eV     1   --> A              
     e( 44 - 44) =      8.94365  eV     1   --> A              
     e( 45 - 45) =      9.72924  eV     1   --> A              
     e( 46 - 46) =      9.78482  eV     1   --> A              
     e( 47 - 47) =      9.80886  eV     1   --> A              
     e( 48 - 48) =      9.95785  eV     1   --> A              
     e( 49 - 49) =     10.07755  eV     1   --> A              
     e( 50 - 50) =     10.12313  eV     1   --> A              
     e( 51 - 51) =     10.14303  eV     1   --> A              
     e( 52 - 52) =     10.16815  eV     1   --> A              
     e( 53 - 53) =     10.90089  eV     1   --> A              
     e( 54 - 54) =     10.91519  eV     1   --> A              
     e( 55 - 55) =     10.92219  eV     1   --> A              
     e( 56 - 56) =     10.94553  eV     1   --> A              
     e( 57 - 57) =     10.96454  eV     1   --> A              
     e( 58 - 58) =     10.97319  eV     1   --> A              
     e( 59 - 59) =     10.99656  eV     1   --> A              
     e( 60 - 60) =     11.01261  eV     1   --> A              
     e( 61 - 61) =     11.01688  eV     1   --> A              
     e( 62 - 62) =     11.04663  eV     1   --> A              
     e( 63 - 63) =     11.06713  eV     1   --> A              
     e( 64 - 64) =     11.06981  eV     1   --> A              
     e( 65 - 65) =     11.84244  eV     1   --> A              
     e( 66 - 66) =     11.89665  eV     1   --> A              
     e( 67 - 67) =     11.93163  eV     1   --> A              
     e( 68 - 68) =     12.11231  eV     1   --> A              
     e( 69 - 69) =     12.14682  eV     1   --> A              
     e( 70 - 70) =     12.15779  eV     1   --> A              
     e( 71 - 71) =     12.18009  eV     1   --> A              
     e( 72 - 72) =     12.27654  eV     1   --> A              
     e( 73 - 73) =     14.32589  eV     1   --> A              
     e( 74 - 74) =     14.37213  eV     1   --> A              
     e( 75 - 75) =     14.43121  eV     1   --> A              
     e( 76 - 76) =     14.47551  eV     1   --> A              
     e( 77 - 77) =     14.59100  eV     1   --> A              
     e( 78 - 78) =     14.85708  eV     1   --> A              
     e( 79 - 79) =     14.87558  eV     1   --> A              
     e( 80 - 80) =     14.87718  eV     1   --> A              
     e( 81 - 81) =     15.05348  eV     1   --> A              
     e( 82 - 82) =     15.12354  eV     1   --> A              
     e( 83 - 83) =     15.16601  eV     1   --> A              
     e( 84 - 84) =     15.21496  eV     1   --> A              
     e( 85 - 85) =     16.63545  eV     1   --> A              
     e( 86 - 86) =     16.77701  eV     1   --> A              
     e( 87 - 87) =     16.79282  eV     1   --> A              
     e( 88 - 88) =     16.92067  eV     1   --> A              
     e( 89 - 89) =     16.98697  eV     1   --> A              
     e( 90 - 90) =     17.19713  eV     1   --> A              
     e( 91 - 91) =     17.19868  eV     1   --> A              
     e( 92 - 92) =     17.55060  eV     1   --> A              

 **************************************************************************

 **************************************************************************

                    xk=(   0.75000,   0.38125,   0.36875  )

     Band symmetry, C_1 (1)     point group:

     e(  1 -  1) =    -36.09180  eV     1   --> A              
     e(  2 -  2) =    -36.09134  eV     1   --> A              
     e(  3 -  3) =    -36.09123  eV     1   --> A              
     e(  4 -  4) =    -36.02921  eV     1   --> A              
     e(  5 -  5) =    -14.19104  eV     1   --> A              
     e(  6 -  6) =    -14.18424  eV     1   --> A              
     e(  7 -  7) =    -14.18203  eV     1   --> A              
     e(  8 -  8) =    -14.17989  eV     1   --> A              
     e(  9 -  9) =    -14.16567  eV     1   --> A              
     e( 10 - 10) =    -14.16327  eV     1   --> A              
     e( 11 - 11) =    -14.15980  eV     1   --> A              
     e( 12 - 12) =    -14.15823  eV     1   --> A              
     e( 13 - 13) =    -14.15804  eV     1   --> A              
     e( 14 - 14) =    -14.11083  eV     1   --> A              
     e( 15 - 15) =    -14.10929  eV     1   --> A              
     e( 16 - 16) =    -14.10792  eV     1   --> A              
     e( 17 - 17) =     -7.76202  eV     1   --> A              
     e( 18 - 18) =     -7.75663  eV     1   --> A              
     e( 19 - 19) =     -7.75389  eV     1   --> A              
     e( 20 - 20) =     -7.75283  eV     1   --> A              
     e( 21 - 21) =     -7.75249  eV     1   --> A              
     e( 22 - 22) =     -7.74867  eV     1   --> A              
     e( 23 - 23) =     -7.74840  eV     1   --> A              
     e( 24 - 24) =     -7.74761  eV     1   --> A              
     e( 25 - 25) =     -7.74548  eV     1   --> A              
     e( 26 - 26) =     -7.74513  eV     1   --> A              
     e( 27 - 27) =     -7.74502  eV     1   --> A              
     e( 28 - 28) =     -7.74034  eV     1   --> A              
     e( 29 - 29) =     -7.73796  eV     1   --> A              
     e( 30 - 30) =     -7.73763  eV     1   --> A              
     e( 31 - 31) =     -7.73643  eV     1   --> A              
     e( 32 - 32) =     -7.73510  eV     1   --> A              
     e( 33 - 33) =     -7.73453  eV     1   --> A              
     e( 34 - 34) =     -7.73337  eV     1   --> A              
     e( 35 - 35) =     -7.73263  eV     1   --> A              
     e( 36 - 36) =     -7.73129  eV     1   --> A              
     e( 37 - 37) =      4.69999  eV     1   --> A              
     e( 38 - 38) =      5.25788  eV     1   --> A              
     e( 39 - 39) =      5.29939  eV     1   --> A              
     e( 40 - 40) =      5.49138  eV     1   --> A              
     e( 41 - 41) =      8.21956  eV     1   --> A              
     e( 42 - 42) =      8.35974  eV     1   --> A              
     e( 43 - 43) =      8.39201  eV     1   --> A              
     e( 44 - 44) =      8.94414  eV     1   --> A              
     e( 45 - 45) =      9.72963  eV     1   --> A              
     e( 46 - 46) =      9.79068  eV     1   --> A              
     e( 47 - 47) =      9.80283  eV     1   --> A              
     e( 48 - 48) =      9.95826  eV     1   --> A              
     e( 49 - 49) =     10.07720  eV     1   --> A              
     e( 50 - 50) =     10.12151  eV     1   --> A              
     e( 51 - 51) =     10.14896  eV     1   --> A              
     e( 52 - 52) =     10.16159  eV     1   --> A              
     e( 53 - 53) =     10.90072  eV     1   --> A              
     e( 54 - 54) =     10.91675  eV     1   --> A              
     e( 55 - 55) =     10.92041  eV     1   --> A              
     e( 56 - 56) =     10.94562  eV     1   --> A              
     e( 57 - 57) =     10.96661  eV     1   --> A              
     e( 58 - 58) =     10.97130  eV     1   --> A              
     e( 59 - 59) =     11.00060  eV     1   --> A              
     e( 60 - 60) =     11.01229  eV     1   --> A              
     e( 61 - 61) =     11.01404  eV     1   --> A              
     e( 62 - 62) =     11.04531  eV     1   --> A              
     e( 63 - 63) =     11.06689  eV     1   --> A              
     e( 64 - 64) =     11.06939  eV     1   --> A              
     e( 65 - 65) =     11.84355  eV     1   --> A              
     e( 66 - 66) =     11.90553  eV     1   --> A              
     e( 67 - 67) =     11.92303  eV     1   --> A              
     e( 68 - 68) =     12.11231  eV     1   --> A              
     e( 69 - 69) =     12.14958  eV     1   --> A              
     e( 70 - 70) =     12.15519  eV     1   --> A              
     e( 71 - 71) =     12.18061  eV     1   --> A              
     e( 72 - 72) =     12.27766  eV     1   --> A              
     e( 73 - 73) =     14.33708  eV     1   --> A              
     e( 74 - 74) =     14.36032  eV     1   --> A              
     e( 75 - 75) =     14.43550  eV     1   --> A              
     e( 76 - 76) =     14.47440  eV     1   --> A              
     e( 77 - 77) =     14.58842  eV     1   --> A              
     e( 78 - 78) =     14.86064  eV     1   --> A              
     e( 79 - 79) =     14.87598  eV     1   --> A              
     e( 80 - 80) =     14.88042  eV     1   --> A              
     e( 81 - 81) =     15.05186  eV     1   --> A              
     e( 82 - 82) =     15.12133  eV     1   --> A              
     e( 83 - 83) =     15.17762  eV     1   --> A              
     e( 84 - 84) =     15.20278  eV     1   --> A              
     e( 85 - 85) =     16.63563  eV     1   --> A              
     e( 86 - 86) =     16.78152  eV     1   --> A              
     e( 87 - 87) =     16.78924  eV     1   --> A              
     e( 88 - 88) =     16.93554  eV     1   --> A              
     e( 89 - 89) =     16.96890  eV     1   --> A              
     e( 90 - 90) =     17.19855  eV     1   --> A              
     e( 91 - 91) =     17.21197  eV     1   --> A              
     e( 92 - 92) =     17.53725  eV     1   --> A              

 **************************************************************************

 **************************************************************************

                    xk=(   0.75000,   0.37500,   0.37500  )

     point group C_s (m)    
     there are  2 classes
     the character table:

       E     s    
A'     1.00  1.00
A''    1.00 -1.00

     the symmetry operations in each class and the name of the first element:

     E        1
                                                                 
     s        2
                                                                 

     Band symmetry, C_s (m)     point group:

     e(  1 -  1) =    -36.09182  eV     1   --> A'             
     e(  2 -  2) =    -36.09133  eV     1   --> A''            
     e(  3 -  3) =    -36.09123  eV     1   --> A'             
     e(  4 -  4) =    -36.02922  eV     1   --> A'             
     e(  5 -  5) =    -14.19105  eV     1   --> A'             
     e(  6 -  6) =    -14.18425  eV     1   --> A'             
     e(  7 -  7) =    -14.18203  eV     1   --> A''            
     e(  8 -  8) =    -14.17990  eV     1   --> A'             
     e(  9 -  9) =    -14.16566  eV     1   --> A'             
     e( 10 - 10) =    -14.16328  eV     1   --> A''            
     e( 11 - 11) =    -14.15980  eV     1   --> A''            
     e( 12 - 13) =    -14.15817  eV     2   --> A'             
     e( 12 - 13) =    -14.15817  eV     2   --> A''            
     e( 14 - 14) =    -14.11083  eV     1   --> A'             
     e( 15 - 15) =    -14.10929  eV     1   --> A''            
     e( 16 - 16) =    -14.10792  eV     1   --> A'             
     e( 17 - 17) =     -7.76202  eV     1   --> A'             
     e( 18 - 18) =     -7.75663  eV     1   --> A''            
     e( 19 - 19) =     -7.75389  eV     1   --> A'             
     e( 20 - 20) =     -7.75282  eV     1   --> A''            
     e( 21 - 21) =     -7.75248  eV     1   --> A'             
     e( 22 - 22) =     -7.74865  eV     1   --> A''            
     e( 23 - 23) =     -7.74841  eV     1   --> A'             
     e( 24 - 24) =     -7.74761  eV     1   --> A''            
     e( 25 - 25) =     -7.74548  eV     1   --> A'             
     e( 26 - 27) =     -7.74511  eV     2   --> A'             
     e( 26 - 27) =     -7.74511  eV     2   --> A''            
     e( 28 - 28) =     -7.74033  eV     1   --> A'             
     e( 29 - 29) =     -7.73791  eV     1   --> A'             
     e( 30 - 30) =     -7.73768  eV     1   --> A''            
     e( 31 - 31) =     -7.73643  eV     1   --> A'             
     e( 32 - 32) =     -7.73509  eV     1   --> A'             
     e( 33 - 33) =     -7.73453  eV     1   --> A''            
     e( 34 - 34) =     -7.73336  eV     1   --> A''            
     e( 35 - 35) =     -7.73262  eV     1   --> A'             
     e( 36 - 36) =     -7.73130  eV     1   --> A''            
     e( 37 - 37) =      4.69980  eV     1   --> A'             
     e( 38 - 38) =      5.27698  eV     1   --> A'             
     e( 39 - 39) =      5.28105  eV     1   --> A''            
     e( 40 - 40) =      5.49135  eV     1   --> A'             
     e( 41 - 41) =      8.21925  eV     1   --> A'             
     e( 42 - 42) =      8.37262  eV     1   --> A''            
     e( 43 - 43) =      8.37785  eV     1   --> A'             
     e( 44 - 44) =      8.94431  eV     1   --> A'             
     e( 45 - 45) =      9.72976  eV     1   --> A'             
     e( 46 - 46) =      9.79563  eV     1   --> A'             
     e( 47 - 47) =      9.79783  eV     1   --> A''            
     e( 48 - 48) =      9.95837  eV     1   --> A''            
     e( 49 - 49) =     10.07709  eV     1   --> A''            
     e( 50 - 50) =     10.12095  eV     1   --> A'             
     e( 51 - 51) =     10.15472  eV     1   --> A''            
     e( 52 - 52) =     10.15561  eV     1   --> A'             
     e( 53 - 53) =     10.90064  eV     1   --> A'             
     e( 54 - 54) =     10.91809  eV     1   --> A'             
     e( 55 - 55) =     10.91904  eV     1   --> A''            
     e( 56 - 56) =     10.94565  eV     1   --> A'             
     e( 57 - 57) =     10.96800  eV     1   --> A''            
     e( 58 - 58) =     10.97000  eV     1   --> A'             
     e( 59 - 59) =     11.00280  eV     1   --> A'             
     e( 60 - 60) =     11.01024  eV     1   --> A''            
     e( 61 - 61) =     11.01414  eV     1   --> A''            
     e( 62 - 62) =     11.04485  eV     1   --> A'             
     e( 63 - 63) =     11.06682  eV     1   --> A''            
     e( 64 - 64) =     11.06926  eV     1   --> A'             
     e( 65 - 65) =     11.84392  eV     1   --> A'             
     e( 66 - 66) =     11.91382  eV     1   --> A''            
     e( 67 - 67) =     11.91483  eV     1   --> A'             
     e( 68 - 68) =     12.11230  eV     1   --> A''            
     e( 69 - 69) =     12.15175  eV     1   --> A''            
     e( 70 - 70) =     12.15307  eV     1   --> A'             
     e( 71 - 71) =     12.18078  eV     1   --> A'             
     e( 72 - 72) =     12.27802  eV     1   --> A''            
     e( 73 - 73) =     14.34732  eV     1   --> A''            
     e( 74 - 74) =     14.34988  eV     1   --> A'             
     e( 75 - 75) =     14.43696  eV     1   --> A''            
     e( 76 - 76) =     14.47403  eV     1   --> A'             
     e( 77 - 77) =     14.58752  eV     1   --> A'             
     e( 78 - 78) =     14.86196  eV     1   --> A''            
     e( 79 - 79) =     14.87597  eV     1   --> A'             
     e( 80 - 80) =     14.88152  eV     1   --> A''            
     e( 81 - 81) =     15.05129  eV     1   --> A'             
     e( 82 - 82) =     15.12059  eV     1   --> A'             
     e( 83 - 83) =     15.18739  eV     1   --> A''            
     e( 84 - 84) =     15.19284  eV     1   --> A'             
     e( 85 - 85) =     16.63569  eV     1   --> A'             
     e( 86 - 86) =     16.78449  eV     1   --> A'             
     e( 87 - 87) =     16.78657  eV     1   --> A''            
     e( 88 - 88) =     16.95145  eV     1   --> A'             
     e( 89 - 89) =     16.95192  eV     1   --> A''            
     e( 90 - 90) =     17.19893  eV     1   --> A'             
     e( 91 - 91) =     17.21677  eV     1   --> A''            
     e( 92 - 92) =     17.53256  eV     1   --> A'             

 **************************************************************************

     BANDS        :     28.18s CPU     38.02s WALL


   This run was terminated on:  17:34:22  22Sep2023            

=------------------------------------------------------------------------------=
   JOB DONE.
=------------------------------------------------------------------------------=
