
     Program PWSCF v.7.1 starts on 22Sep2023 at 17:31: 4 

     This program is part of the open-source Quantum ESPRESSO suite
     for quantum simulation of materials; please cite
         "P. Giannozzi et al., J. Phys.:Condens. Matter 21 395502 (2009);
         "P. Giannozzi et al., J. Phys.:Condens. Matter 29 465901 (2017);
         "P. Giannozzi et al., J. Chem. Phys. 152 154105 (2020);
          URL http://www.quantum-espresso.org", 
     in publications or presentations arising from this work. More details at
     http://www.quantum-espresso.org/quote

     Parallel version (MPI & OpenMP), running on      10 processor cores
     Number of MPI processes:                10
     Threads/MPI process:                     1

     MPI processes distributed on     1 nodes
     11653 MiB available memory on the printing compute node when the environment starts

     Waiting for input...
     Reading input from standard input

     Current dimensions of program PWSCF are:
     Max number of different atomic species (ntypx) = 10
     Max number of k-points (npk) =  40000
     Max angular momentum in pseudopotentials (lmaxx) =  4

     Atomic positions and unit cell read from directory:
     ./work/pwscf.save/

     file Ni.pbesol-n-kjpaw_psl.1.0.0.UPF: wavefunction(s)  4S 3D renormalized
     file Sn.pbesol-dn-kjpaw_psl.1.0.0.UPF: wavefunction(s)  5S 5P 4D renormalized
     file Zr.pbesol-spn-kjpaw_psl.1.0.0.UPF: wavefunction(s)  4S 4P renormalized
     Found identity + ( -0.5000  0.5000  0.0000) symmetry
     This is a supercell, fractional translations are disabled
     Message from routine setup:
     using ibrav=0 with symmetry is DISCOURAGED, use correct ibrav instead

     R & G space division:  proc/nbgrp/npool/nimage =      10
     Subspace diagonalization in iterative solution of the eigenvalue problem:
     a serial algorithm will be used


     Parallelization info
     --------------------
     sticks:   dense  smooth     PW     G-vecs:    dense   smooth      PW
     Min         288     202     59                11648     6868    1077
     Max         289     203     60                11650     6873    1080
     Sum        2885    2025    593               116489    68699   10779

     Using Slab Decomposition



     bravais-lattice index     =            0
     lattice parameter (alat)  =      11.6457  a.u.
     unit-cell volume          =    1579.4177 (a.u.)^3
     number of atoms/cell      =           12
     number of atomic types    =            3
     number of electrons       =       144.00
     number of Kohn-Sham states=           92
     kinetic-energy cutoff     =      47.0000  Ry
     charge density cutoff     =     267.0000  Ry
     Exchange-correlation= SLA  PW   PSX  PSC
                           (   1   4  10   8   0   0   0)

     celldm(1)=  11.645702  celldm(2)=   0.000000  celldm(3)=   0.000000
     celldm(4)=   0.000000  celldm(5)=   0.000000  celldm(6)=   0.000000

     crystal axes: (cart. coord. in units of alat)
               a(1) = (   1.000000   0.000000   0.000000 )  
               a(2) = (   0.000000   1.000000   0.000000 )  
               a(3) = (   0.000000   0.000000   1.000000 )  

     reciprocal axes: (cart. coord. in units 2 pi/alat)
               b(1) = (  1.000000  0.000000  0.000000 )  
               b(2) = (  0.000000  1.000000  0.000000 )  
               b(3) = (  0.000000  0.000000  1.000000 )  


     PseudoPot. # 1 for Ni read from file:
     ./../../pseudo/psl100_PBEsol/Ni.pbesol-n-kjpaw_psl.1.0.0.UPF
     MD5 check sum: c2da3341c4557c864d1c6bf67a53fbaf
     Pseudo is Projector augmented-wave + core cor, Zval = 10.0
     Generated using 'atomic' code by A. Dal Corso  v.7.2
     Shape of augmentation charge: PSQ
     Using radial grid of 1195 points,  6 beta functions with: 
                l(1) =   0
                l(2) =   0
                l(3) =   1
                l(4) =   1
                l(5) =   2
                l(6) =   2
     Q(r) pseudized with 0 coefficients 


     PseudoPot. # 2 for Sn read from file:
     ./../../pseudo/psl100_PBEsol/Sn.pbesol-dn-kjpaw_psl.1.0.0.UPF
     MD5 check sum: d43f0cd8f3d417b808f765d7dd913ecb
     Pseudo is Projector augmented-wave + core cor, Zval = 14.0
     Generated using 'atomic' code by A. Dal Corso  v.7.2
     Shape of augmentation charge: PSQ
     Using radial grid of 1243 points,  6 beta functions with: 
                l(1) =   0
                l(2) =   0
                l(3) =   1
                l(4) =   1
                l(5) =   2
                l(6) =   2
     Q(r) pseudized with 0 coefficients 


     PseudoPot. # 3 for Zr read from file:
     ./../../pseudo/psl100_PBEsol/Zr.pbesol-spn-kjpaw_psl.1.0.0.UPF
     MD5 check sum: 7ccf6e38527210cd23d725eb86f9db12
     Pseudo is Projector augmented-wave + core cor, Zval = 12.0
     Generated using 'atomic' code by A. Dal Corso  v.7.2
     Shape of augmentation charge: PSQ
     Using radial grid of 1225 points,  6 beta functions with: 
                l(1) =   0
                l(2) =   0
                l(3) =   1
                l(4) =   1
                l(5) =   2
                l(6) =   2
     Q(r) pseudized with 0 coefficients 


     atomic species   valence    mass     pseudopotential
        Ni            10.00    58.69340     Ni( 1.00)
        Sn            14.00   118.71000     Sn( 1.00)
        Zr            12.00    91.22400     Zr( 1.00)

     24 Sym. Ops. (no inversion) found


                                    s                        frac. trans.

      isym =  1     identity                                     

 cryst.   s( 1) = (     1          0          0      )
                  (     0          1          0      )
                  (     0          0          1      )

 cart.    s( 1) = (  1.0000000  0.0000000  0.0000000 )
                  (  0.0000000  1.0000000  0.0000000 )
                  (  0.0000000  0.0000000  1.0000000 )


      isym =  2     180 deg rotation - cart. axis [0,0,1]        

 cryst.   s( 2) = (    -1          0          0      )
                  (     0         -1          0      )
                  (     0          0          1      )

 cart.    s( 2) = ( -1.0000000  0.0000000  0.0000000 )
                  (  0.0000000 -1.0000000  0.0000000 )
                  (  0.0000000  0.0000000  1.0000000 )


      isym =  3     180 deg rotation - cart. axis [0,1,0]        

 cryst.   s( 3) = (    -1          0          0      )
                  (     0          1          0      )
                  (     0          0         -1      )

 cart.    s( 3) = ( -1.0000000  0.0000000  0.0000000 )
                  (  0.0000000  1.0000000  0.0000000 )
                  (  0.0000000  0.0000000 -1.0000000 )


      isym =  4     180 deg rotation - cart. axis [1,0,0]        

 cryst.   s( 4) = (     1          0          0      )
                  (     0         -1          0      )
                  (     0          0         -1      )

 cart.    s( 4) = (  1.0000000  0.0000000  0.0000000 )
                  (  0.0000000 -1.0000000  0.0000000 )
                  (  0.0000000  0.0000000 -1.0000000 )


      isym =  5     120 deg rotation - cart. axis [-1,-1,-1]     

 cryst.   s( 5) = (     0          0          1      )
                  (     1          0          0      )
                  (     0          1          0      )

 cart.    s( 5) = (  0.0000000  1.0000000  0.0000000 )
                  (  0.0000000  0.0000000  1.0000000 )
                  (  1.0000000  0.0000000  0.0000000 )


      isym =  6     120 deg rotation - cart. axis [-1,1,1]       

 cryst.   s( 6) = (     0          0         -1      )
                  (    -1          0          0      )
                  (     0          1          0      )

 cart.    s( 6) = (  0.0000000 -1.0000000  0.0000000 )
                  (  0.0000000  0.0000000  1.0000000 )
                  ( -1.0000000  0.0000000  0.0000000 )


      isym =  7     120 deg rotation - cart. axis [1,1,-1]       

 cryst.   s( 7) = (     0          0         -1      )
                  (     1          0          0      )
                  (     0         -1          0      )

 cart.    s( 7) = (  0.0000000  1.0000000  0.0000000 )
                  (  0.0000000  0.0000000 -1.0000000 )
                  ( -1.0000000  0.0000000  0.0000000 )


      isym =  8     120 deg rotation - cart. axis [1,-1,1]       

 cryst.   s( 8) = (     0          0          1      )
                  (    -1          0          0      )
                  (     0         -1          0      )

 cart.    s( 8) = (  0.0000000 -1.0000000  0.0000000 )
                  (  0.0000000  0.0000000 -1.0000000 )
                  (  1.0000000  0.0000000  0.0000000 )


      isym =  9     120 deg rotation - cart. axis [1,1,1]        

 cryst.   s( 9) = (     0          1          0      )
                  (     0          0          1      )
                  (     1          0          0      )

 cart.    s( 9) = (  0.0000000  0.0000000  1.0000000 )
                  (  1.0000000  0.0000000  0.0000000 )
                  (  0.0000000  1.0000000  0.0000000 )


      isym = 10     120 deg rotation - cart. axis [-1,1,-1]      

 cryst.   s(10) = (     0         -1          0      )
                  (     0          0         -1      )
                  (     1          0          0      )

 cart.    s(10) = (  0.0000000  0.0000000  1.0000000 )
                  ( -1.0000000  0.0000000  0.0000000 )
                  (  0.0000000 -1.0000000  0.0000000 )


      isym = 11     120 deg rotation - cart. axis [1,-1,-1]      

 cryst.   s(11) = (     0         -1          0      )
                  (     0          0          1      )
                  (    -1          0          0      )

 cart.    s(11) = (  0.0000000  0.0000000 -1.0000000 )
                  ( -1.0000000  0.0000000  0.0000000 )
                  (  0.0000000  1.0000000  0.0000000 )


      isym = 12     120 deg rotation - cart. axis [-1,-1,1]      

 cryst.   s(12) = (     0          1          0      )
                  (     0          0         -1      )
                  (    -1          0          0      )

 cart.    s(12) = (  0.0000000  0.0000000 -1.0000000 )
                  (  1.0000000  0.0000000  0.0000000 )
                  (  0.0000000 -1.0000000  0.0000000 )


      isym = 13     inv. 180 deg rotation - cart. axis [1,1,0]   

 cryst.   s(13) = (     0         -1          0      )
                  (    -1          0          0      )
                  (     0          0          1      )

 cart.    s(13) = (  0.0000000 -1.0000000  0.0000000 )
                  ( -1.0000000  0.0000000  0.0000000 )
                  (  0.0000000  0.0000000  1.0000000 )


      isym = 14     inv. 180 deg rotation - cart. axis [1,-1,0]  

 cryst.   s(14) = (     0          1          0      )
                  (     1          0          0      )
                  (     0          0          1      )

 cart.    s(14) = (  0.0000000  1.0000000  0.0000000 )
                  (  1.0000000  0.0000000  0.0000000 )
                  (  0.0000000  0.0000000  1.0000000 )


      isym = 15     inv.  90 deg rotation - cart. axis [0,0,-1]  

 cryst.   s(15) = (     0          1          0      )
                  (    -1          0          0      )
                  (     0          0         -1      )

 cart.    s(15) = (  0.0000000 -1.0000000  0.0000000 )
                  (  1.0000000  0.0000000  0.0000000 )
                  (  0.0000000  0.0000000 -1.0000000 )


      isym = 16     inv.  90 deg rotation - cart. axis [0,0,1]   

 cryst.   s(16) = (     0         -1          0      )
                  (     1          0          0      )
                  (     0          0         -1      )

 cart.    s(16) = (  0.0000000  1.0000000  0.0000000 )
                  ( -1.0000000  0.0000000  0.0000000 )
                  (  0.0000000  0.0000000 -1.0000000 )


      isym = 17     inv. 180 deg rotation - cart. axis [1,0,1]   

 cryst.   s(17) = (     0          0         -1      )
                  (     0          1          0      )
                  (    -1          0          0      )

 cart.    s(17) = (  0.0000000  0.0000000 -1.0000000 )
                  (  0.0000000  1.0000000  0.0000000 )
                  ( -1.0000000  0.0000000  0.0000000 )


      isym = 18     inv. 180 deg rotation - cart. axis [-1,0,1]  

 cryst.   s(18) = (     0          0          1      )
                  (     0          1          0      )
                  (     1          0          0      )

 cart.    s(18) = (  0.0000000  0.0000000  1.0000000 )
                  (  0.0000000  1.0000000  0.0000000 )
                  (  1.0000000  0.0000000  0.0000000 )


      isym = 19     inv.  90 deg rotation - cart. axis [0,1,0]   

 cryst.   s(19) = (     0          0          1      )
                  (     0         -1          0      )
                  (    -1          0          0      )

 cart.    s(19) = (  0.0000000  0.0000000 -1.0000000 )
                  (  0.0000000 -1.0000000  0.0000000 )
                  (  1.0000000  0.0000000  0.0000000 )


      isym = 20     inv.  90 deg rotation - cart. axis [0,-1,0]  

 cryst.   s(20) = (     0          0         -1      )
                  (     0         -1          0      )
                  (     1          0          0      )

 cart.    s(20) = (  0.0000000  0.0000000  1.0000000 )
                  (  0.0000000 -1.0000000  0.0000000 )
                  ( -1.0000000  0.0000000  0.0000000 )


      isym = 21     inv. 180 deg rotation - cart. axis [0,1,1]   

 cryst.   s(21) = (     1          0          0      )
                  (     0          0         -1      )
                  (     0         -1          0      )

 cart.    s(21) = (  1.0000000  0.0000000  0.0000000 )
                  (  0.0000000  0.0000000 -1.0000000 )
                  (  0.0000000 -1.0000000  0.0000000 )


      isym = 22     inv. 180 deg rotation - cart. axis [0,1,-1]  

 cryst.   s(22) = (     1          0          0      )
                  (     0          0          1      )
                  (     0          1          0      )

 cart.    s(22) = (  1.0000000  0.0000000  0.0000000 )
                  (  0.0000000  0.0000000  1.0000000 )
                  (  0.0000000  1.0000000  0.0000000 )


      isym = 23     inv.  90 deg rotation - cart. axis [-1,0,0]  

 cryst.   s(23) = (    -1          0          0      )
                  (     0          0          1      )
                  (     0         -1          0      )

 cart.    s(23) = ( -1.0000000  0.0000000  0.0000000 )
                  (  0.0000000  0.0000000 -1.0000000 )
                  (  0.0000000  1.0000000  0.0000000 )


      isym = 24     inv.  90 deg rotation - cart. axis [1,0,0]   

 cryst.   s(24) = (    -1          0          0      )
                  (     0          0         -1      )
                  (     0          1          0      )

 cart.    s(24) = ( -1.0000000  0.0000000  0.0000000 )
                  (  0.0000000  0.0000000  1.0000000 )
                  (  0.0000000 -1.0000000  0.0000000 )


   Cartesian axes

     site n.     atom                  positions (alat units)
         1           Sn  tau(   1) = (   0.5000000   0.0000000   0.0000000  )
         2           Sn  tau(   2) = (   0.0000000   0.5000000   0.0000000  )
         3           Sn  tau(   3) = (   0.0000000   0.0000000   0.5000000  )
         4           Sn  tau(   4) = (   0.5000000   0.5000000   0.5000000  )
         5           Zr  tau(   5) = (   0.0000000   0.0000000   0.0000000  )
         6           Zr  tau(   6) = (   0.0000000   0.5000000   0.5000000  )
         7           Zr  tau(   7) = (   0.5000000   0.0000000   0.5000000  )
         8           Zr  tau(   8) = (   0.5000000   0.5000000   0.0000000  )
         9           Ni  tau(   9) = (   0.2500000   0.2500000   0.7500000  )
        10           Ni  tau(  10) = (   0.7500000   0.7500000   0.7500000  )
        11           Ni  tau(  11) = (   0.7500000   0.2500000   0.2500000  )
        12           Ni  tau(  12) = (   0.2500000   0.7500000   0.2500000  )

   Crystallographic axes

     site n.     atom                  positions (cryst. coord.)
         1           Sn  tau(   1) = (  0.5000000  0.0000000  0.0000000  )
         2           Sn  tau(   2) = (  0.0000000  0.5000000  0.0000000  )
         3           Sn  tau(   3) = (  0.0000000  0.0000000  0.5000000  )
         4           Sn  tau(   4) = (  0.5000000  0.5000000  0.5000000  )
         5           Zr  tau(   5) = (  0.0000000  0.0000000  0.0000000  )
         6           Zr  tau(   6) = (  0.0000000  0.5000000  0.5000000  )
         7           Zr  tau(   7) = (  0.5000000  0.0000000  0.5000000  )
         8           Zr  tau(   8) = (  0.5000000  0.5000000  0.0000000  )
         9           Ni  tau(   9) = (  0.2500000  0.2500000  0.7500000  )
        10           Ni  tau(  10) = (  0.7500000  0.7500000  0.7500000  )
        11           Ni  tau(  11) = (  0.7500000  0.2500000  0.2500000  )
        12           Ni  tau(  12) = (  0.2500000  0.7500000  0.2500000  )

     number of k points=   101  Methfessel-Paxton smearing, width (Ry)=  0.0100
                       cart. coord. in units 2pi/alat
        k(    1) = (   0.5000000   0.2500000   0.7500000), wk =   0.0198020
        k(    2) = (   0.4750000   0.2625000   0.7125000), wk =   0.0198020
        k(    3) = (   0.4500000   0.2750000   0.6750000), wk =   0.0198020
        k(    4) = (   0.4250000   0.2875000   0.6375000), wk =   0.0198020
        k(    5) = (   0.4000000   0.3000000   0.6000000), wk =   0.0198020
        k(    6) = (   0.3750000   0.3125000   0.5625000), wk =   0.0198020
        k(    7) = (   0.3500000   0.3250000   0.5250000), wk =   0.0198020
        k(    8) = (   0.3250000   0.3375000   0.4875000), wk =   0.0198020
        k(    9) = (   0.3000000   0.3500000   0.4500000), wk =   0.0198020
        k(   10) = (   0.2750000   0.3625000   0.4125000), wk =   0.0198020
        k(   11) = (   0.2500000   0.3750000   0.3750000), wk =   0.0198020
        k(   12) = (   0.2250000   0.3875000   0.3375000), wk =   0.0198020
        k(   13) = (   0.2000000   0.4000000   0.3000000), wk =   0.0198020
        k(   14) = (   0.1750000   0.4125000   0.2625000), wk =   0.0198020
        k(   15) = (   0.1500000   0.4250000   0.2250000), wk =   0.0198020
        k(   16) = (   0.1250000   0.4375000   0.1875000), wk =   0.0198020
        k(   17) = (   0.1000000   0.4500000   0.1500000), wk =   0.0198020
        k(   18) = (   0.0750000   0.4625000   0.1125000), wk =   0.0198020
        k(   19) = (   0.0500000   0.4750000   0.0750000), wk =   0.0198020
        k(   20) = (   0.0250000   0.4875000   0.0375000), wk =   0.0198020
        k(   21) = (   0.0000000   0.5000000   0.0000000), wk =   0.0198020
        k(   22) = (   0.0000000   0.4750000   0.0000000), wk =   0.0198020
        k(   23) = (   0.0000000   0.4500000   0.0000000), wk =   0.0198020
        k(   24) = (   0.0000000   0.4250000   0.0000000), wk =   0.0198020
        k(   25) = (   0.0000000   0.4000000   0.0000000), wk =   0.0198020
        k(   26) = (   0.0000000   0.3750000   0.0000000), wk =   0.0198020
        k(   27) = (   0.0000000   0.3500000   0.0000000), wk =   0.0198020
        k(   28) = (   0.0000000   0.3250000   0.0000000), wk =   0.0198020
        k(   29) = (   0.0000000   0.3000000   0.0000000), wk =   0.0198020
        k(   30) = (   0.0000000   0.2750000   0.0000000), wk =   0.0198020
        k(   31) = (   0.0000000   0.2500000   0.0000000), wk =   0.0198020
        k(   32) = (   0.0000000   0.2250000   0.0000000), wk =   0.0198020
        k(   33) = (   0.0000000   0.2000000   0.0000000), wk =   0.0198020
        k(   34) = (   0.0000000   0.1750000   0.0000000), wk =   0.0198020
        k(   35) = (   0.0000000   0.1500000   0.0000000), wk =   0.0198020
        k(   36) = (   0.0000000   0.1250000   0.0000000), wk =   0.0198020
        k(   37) = (   0.0000000   0.1000000   0.0000000), wk =   0.0198020
        k(   38) = (   0.0000000   0.0750000   0.0000000), wk =   0.0198020
        k(   39) = (   0.0000000   0.0500000   0.0000000), wk =   0.0198020
        k(   40) = (   0.0000000   0.0250000   0.0000000), wk =   0.0198020
        k(   41) = (   0.0000000   0.0000000   0.0000000), wk =   0.0198020
        k(   42) = (   0.0000000   0.0250000   0.0250000), wk =   0.0198020
        k(   43) = (   0.0000000   0.0500000   0.0500000), wk =   0.0198020
        k(   44) = (   0.0000000   0.0750000   0.0750000), wk =   0.0198020
        k(   45) = (   0.0000000   0.1000000   0.1000000), wk =   0.0198020
        k(   46) = (   0.0000000   0.1250000   0.1250000), wk =   0.0198020
        k(   47) = (   0.0000000   0.1500000   0.1500000), wk =   0.0198020
        k(   48) = (   0.0000000   0.1750000   0.1750000), wk =   0.0198020
        k(   49) = (   0.0000000   0.2000000   0.2000000), wk =   0.0198020
        k(   50) = (   0.0000000   0.2250000   0.2250000), wk =   0.0198020
        k(   51) = (   0.0000000   0.2500000   0.2500000), wk =   0.0198020
        k(   52) = (   0.0000000   0.2750000   0.2750000), wk =   0.0198020
        k(   53) = (   0.0000000   0.3000000   0.3000000), wk =   0.0198020
        k(   54) = (   0.0000000   0.3250000   0.3250000), wk =   0.0198020
        k(   55) = (   0.0000000   0.3500000   0.3500000), wk =   0.0198020
        k(   56) = (   0.0000000   0.3750000   0.3750000), wk =   0.0198020
        k(   57) = (   0.0000000   0.4000000   0.4000000), wk =   0.0198020
        k(   58) = (   0.0000000   0.4250000   0.4250000), wk =   0.0198020
        k(   59) = (   0.0000000   0.4500000   0.4500000), wk =   0.0198020
        k(   60) = (   0.0000000   0.4750000   0.4750000), wk =   0.0198020
        k(   61) = (   0.0000000   0.5000000   0.5000000), wk =   0.0198020
        k(   62) = (   0.0375000   0.5000000   0.4875000), wk =   0.0198020
        k(   63) = (   0.0750000   0.5000000   0.4750000), wk =   0.0198020
        k(   64) = (   0.1125000   0.5000000   0.4625000), wk =   0.0198020
        k(   65) = (   0.1500000   0.5000000   0.4500000), wk =   0.0198020
        k(   66) = (   0.1875000   0.5000000   0.4375000), wk =   0.0198020
        k(   67) = (   0.2250000   0.5000000   0.4250000), wk =   0.0198020
        k(   68) = (   0.2625000   0.5000000   0.4125000), wk =   0.0198020
        k(   69) = (   0.3000000   0.5000000   0.4000000), wk =   0.0198020
        k(   70) = (   0.3375000   0.5000000   0.3875000), wk =   0.0198020
        k(   71) = (   0.3750000   0.5000000   0.3750000), wk =   0.0198020
        k(   72) = (   0.4125000   0.5000000   0.3625000), wk =   0.0198020
        k(   73) = (   0.4500000   0.5000000   0.3500000), wk =   0.0198020
        k(   74) = (   0.4875000   0.5000000   0.3375000), wk =   0.0198020
        k(   75) = (   0.5250000   0.5000000   0.3250000), wk =   0.0198020
        k(   76) = (   0.5625000   0.5000000   0.3125000), wk =   0.0198020
        k(   77) = (   0.6000000   0.5000000   0.3000000), wk =   0.0198020
        k(   78) = (   0.6375000   0.5000000   0.2875000), wk =   0.0198020
        k(   79) = (   0.6750000   0.5000000   0.2750000), wk =   0.0198020
        k(   80) = (   0.7125000   0.5000000   0.2625000), wk =   0.0198020
        k(   81) = (   0.7500000   0.5000000   0.2500000), wk =   0.0198020
        k(   82) = (   0.7500000   0.4937500   0.2562500), wk =   0.0198020
        k(   83) = (   0.7500000   0.4875000   0.2625000), wk =   0.0198020
        k(   84) = (   0.7500000   0.4812500   0.2687500), wk =   0.0198020
        k(   85) = (   0.7500000   0.4750000   0.2750000), wk =   0.0198020
        k(   86) = (   0.7500000   0.4687500   0.2812500), wk =   0.0198020
        k(   87) = (   0.7500000   0.4625000   0.2875000), wk =   0.0198020
        k(   88) = (   0.7500000   0.4562500   0.2937500), wk =   0.0198020
        k(   89) = (   0.7500000   0.4500000   0.3000000), wk =   0.0198020
        k(   90) = (   0.7500000   0.4437500   0.3062500), wk =   0.0198020
        k(   91) = (   0.7500000   0.4375000   0.3125000), wk =   0.0198020
        k(   92) = (   0.7500000   0.4312500   0.3187500), wk =   0.0198020
        k(   93) = (   0.7500000   0.4250000   0.3250000), wk =   0.0198020
        k(   94) = (   0.7500000   0.4187500   0.3312500), wk =   0.0198020
        k(   95) = (   0.7500000   0.4125000   0.3375000), wk =   0.0198020
        k(   96) = (   0.7500000   0.4062500   0.3437500), wk =   0.0198020
        k(   97) = (   0.7500000   0.4000000   0.3500000), wk =   0.0198020
        k(   98) = (   0.7500000   0.3937500   0.3562500), wk =   0.0198020
        k(   99) = (   0.7500000   0.3875000   0.3625000), wk =   0.0198020
        k(  100) = (   0.7500000   0.3812500   0.3687500), wk =   0.0198020
        k(  101) = (   0.7500000   0.3750000   0.3750000), wk =   0.0198020

                       cryst. coord.
        k(    1) = (   0.5000000   0.2500000   0.7500000), wk =   0.0198020
        k(    2) = (   0.4750000   0.2625000   0.7125000), wk =   0.0198020
        k(    3) = (   0.4500000   0.2750000   0.6750000), wk =   0.0198020
        k(    4) = (   0.4250000   0.2875000   0.6375000), wk =   0.0198020
        k(    5) = (   0.4000000   0.3000000   0.6000000), wk =   0.0198020
        k(    6) = (   0.3750000   0.3125000   0.5625000), wk =   0.0198020
        k(    7) = (   0.3500000   0.3250000   0.5250000), wk =   0.0198020
        k(    8) = (   0.3250000   0.3375000   0.4875000), wk =   0.0198020
        k(    9) = (   0.3000000   0.3500000   0.4500000), wk =   0.0198020
        k(   10) = (   0.2750000   0.3625000   0.4125000), wk =   0.0198020
        k(   11) = (   0.2500000   0.3750000   0.3750000), wk =   0.0198020
        k(   12) = (   0.2250000   0.3875000   0.3375000), wk =   0.0198020
        k(   13) = (   0.2000000   0.4000000   0.3000000), wk =   0.0198020
        k(   14) = (   0.1750000   0.4125000   0.2625000), wk =   0.0198020
        k(   15) = (   0.1500000   0.4250000   0.2250000), wk =   0.0198020
        k(   16) = (   0.1250000   0.4375000   0.1875000), wk =   0.0198020
        k(   17) = (   0.1000000   0.4500000   0.1500000), wk =   0.0198020
        k(   18) = (   0.0750000   0.4625000   0.1125000), wk =   0.0198020
        k(   19) = (   0.0500000   0.4750000   0.0750000), wk =   0.0198020
        k(   20) = (   0.0250000   0.4875000   0.0375000), wk =   0.0198020
        k(   21) = (   0.0000000   0.5000000   0.0000000), wk =   0.0198020
        k(   22) = (   0.0000000   0.4750000   0.0000000), wk =   0.0198020
        k(   23) = (   0.0000000   0.4500000   0.0000000), wk =   0.0198020
        k(   24) = (   0.0000000   0.4250000   0.0000000), wk =   0.0198020
        k(   25) = (   0.0000000   0.4000000   0.0000000), wk =   0.0198020
        k(   26) = (   0.0000000   0.3750000   0.0000000), wk =   0.0198020
        k(   27) = (   0.0000000   0.3500000   0.0000000), wk =   0.0198020
        k(   28) = (   0.0000000   0.3250000   0.0000000), wk =   0.0198020
        k(   29) = (   0.0000000   0.3000000   0.0000000), wk =   0.0198020
        k(   30) = (   0.0000000   0.2750000   0.0000000), wk =   0.0198020
        k(   31) = (   0.0000000   0.2500000   0.0000000), wk =   0.0198020
        k(   32) = (   0.0000000   0.2250000   0.0000000), wk =   0.0198020
        k(   33) = (   0.0000000   0.2000000   0.0000000), wk =   0.0198020
        k(   34) = (   0.0000000   0.1750000   0.0000000), wk =   0.0198020
        k(   35) = (   0.0000000   0.1500000   0.0000000), wk =   0.0198020
        k(   36) = (   0.0000000   0.1250000   0.0000000), wk =   0.0198020
        k(   37) = (   0.0000000   0.1000000   0.0000000), wk =   0.0198020
        k(   38) = (   0.0000000   0.0750000   0.0000000), wk =   0.0198020
        k(   39) = (   0.0000000   0.0500000   0.0000000), wk =   0.0198020
        k(   40) = (   0.0000000   0.0250000   0.0000000), wk =   0.0198020
        k(   41) = (   0.0000000   0.0000000   0.0000000), wk =   0.0198020
        k(   42) = (   0.0000000   0.0250000   0.0250000), wk =   0.0198020
        k(   43) = (   0.0000000   0.0500000   0.0500000), wk =   0.0198020
        k(   44) = (   0.0000000   0.0750000   0.0750000), wk =   0.0198020
        k(   45) = (   0.0000000   0.1000000   0.1000000), wk =   0.0198020
        k(   46) = (   0.0000000   0.1250000   0.1250000), wk =   0.0198020
        k(   47) = (   0.0000000   0.1500000   0.1500000), wk =   0.0198020
        k(   48) = (   0.0000000   0.1750000   0.1750000), wk =   0.0198020
        k(   49) = (   0.0000000   0.2000000   0.2000000), wk =   0.0198020
        k(   50) = (   0.0000000   0.2250000   0.2250000), wk =   0.0198020
        k(   51) = (   0.0000000   0.2500000   0.2500000), wk =   0.0198020
        k(   52) = (   0.0000000   0.2750000   0.2750000), wk =   0.0198020
        k(   53) = (   0.0000000   0.3000000   0.3000000), wk =   0.0198020
        k(   54) = (   0.0000000   0.3250000   0.3250000), wk =   0.0198020
        k(   55) = (   0.0000000   0.3500000   0.3500000), wk =   0.0198020
        k(   56) = (   0.0000000   0.3750000   0.3750000), wk =   0.0198020
        k(   57) = (   0.0000000   0.4000000   0.4000000), wk =   0.0198020
        k(   58) = (   0.0000000   0.4250000   0.4250000), wk =   0.0198020
        k(   59) = (   0.0000000   0.4500000   0.4500000), wk =   0.0198020
        k(   60) = (   0.0000000   0.4750000   0.4750000), wk =   0.0198020
        k(   61) = (   0.0000000   0.5000000   0.5000000), wk =   0.0198020
        k(   62) = (   0.0375000   0.5000000   0.4875000), wk =   0.0198020
        k(   63) = (   0.0750000   0.5000000   0.4750000), wk =   0.0198020
        k(   64) = (   0.1125000   0.5000000   0.4625000), wk =   0.0198020
        k(   65) = (   0.1500000   0.5000000   0.4500000), wk =   0.0198020
        k(   66) = (   0.1875000   0.5000000   0.4375000), wk =   0.0198020
        k(   67) = (   0.2250000   0.5000000   0.4250000), wk =   0.0198020
        k(   68) = (   0.2625000   0.5000000   0.4125000), wk =   0.0198020
        k(   69) = (   0.3000000   0.5000000   0.4000000), wk =   0.0198020
        k(   70) = (   0.3375000   0.5000000   0.3875000), wk =   0.0198020
        k(   71) = (   0.3750000   0.5000000   0.3750000), wk =   0.0198020
        k(   72) = (   0.4125000   0.5000000   0.3625000), wk =   0.0198020
        k(   73) = (   0.4500000   0.5000000   0.3500000), wk =   0.0198020
        k(   74) = (   0.4875000   0.5000000   0.3375000), wk =   0.0198020
        k(   75) = (   0.5250000   0.5000000   0.3250000), wk =   0.0198020
        k(   76) = (   0.5625000   0.5000000   0.3125000), wk =   0.0198020
        k(   77) = (   0.6000000   0.5000000   0.3000000), wk =   0.0198020
        k(   78) = (   0.6375000   0.5000000   0.2875000), wk =   0.0198020
        k(   79) = (   0.6750000   0.5000000   0.2750000), wk =   0.0198020
        k(   80) = (   0.7125000   0.5000000   0.2625000), wk =   0.0198020
        k(   81) = (   0.7500000   0.5000000   0.2500000), wk =   0.0198020
        k(   82) = (   0.7500000   0.4937500   0.2562500), wk =   0.0198020
        k(   83) = (   0.7500000   0.4875000   0.2625000), wk =   0.0198020
        k(   84) = (   0.7500000   0.4812500   0.2687500), wk =   0.0198020
        k(   85) = (   0.7500000   0.4750000   0.2750000), wk =   0.0198020
        k(   86) = (   0.7500000   0.4687500   0.2812500), wk =   0.0198020
        k(   87) = (   0.7500000   0.4625000   0.2875000), wk =   0.0198020
        k(   88) = (   0.7500000   0.4562500   0.2937500), wk =   0.0198020
        k(   89) = (   0.7500000   0.4500000   0.3000000), wk =   0.0198020
        k(   90) = (   0.7500000   0.4437500   0.3062500), wk =   0.0198020
        k(   91) = (   0.7500000   0.4375000   0.3125000), wk =   0.0198020
        k(   92) = (   0.7500000   0.4312500   0.3187500), wk =   0.0198020
        k(   93) = (   0.7500000   0.4250000   0.3250000), wk =   0.0198020
        k(   94) = (   0.7500000   0.4187500   0.3312500), wk =   0.0198020
        k(   95) = (   0.7500000   0.4125000   0.3375000), wk =   0.0198020
        k(   96) = (   0.7500000   0.4062500   0.3437500), wk =   0.0198020
        k(   97) = (   0.7500000   0.4000000   0.3500000), wk =   0.0198020
        k(   98) = (   0.7500000   0.3937500   0.3562500), wk =   0.0198020
        k(   99) = (   0.7500000   0.3875000   0.3625000), wk =   0.0198020
        k(  100) = (   0.7500000   0.3812500   0.3687500), wk =   0.0198020
        k(  101) = (   0.7500000   0.3750000   0.3750000), wk =   0.0198020

     Dense  grid:   116489 G-vectors     FFT dimensions: (  64,  64,  64)

     Smooth grid:    68699 G-vectors     FFT dimensions: (  54,  54,  54)

     Dynamical RAM for                 wfc:       1.21 MB

     Dynamical RAM for     wfc (w. buffer):     123.00 MB

     Dynamical RAM for           str. fact:       0.53 MB

     Dynamical RAM for           local pot:       0.00 MB

     Dynamical RAM for          nlocal pot:       2.83 MB

     Dynamical RAM for                qrad:       3.94 MB

     Dynamical RAM for          rho,v,vnew:       1.19 MB

     Dynamical RAM for           G-vectors:       0.72 MB

     Dynamical RAM for          h,s,v(r/c):       1.55 MB

     Dynamical RAM for          <psi|beta>:       0.30 MB

     Dynamical RAM for                 psi:       2.41 MB

     Dynamical RAM for                hpsi:       2.41 MB

     Dynamical RAM for                spsi:       2.41 MB

     Dynamical RAM for      wfcinit/wfcrot:       3.60 MB

     Dynamical RAM for           addusdens:      33.77 MB

     Estimated static dynamical RAM per process >     134.01 MB

     Estimated max dynamical RAM per process >     167.79 MB

     Estimated total dynamical RAM >       1.64 GB

     Check: negative core charge=   -0.000004

     The potential is recalculated from file :
     ./work/pwscf.save/charge-density

     Starting wfcs are  124 randomized atomic wfcs
     Checking if some PAW data can be deallocated... 
       PAW data deallocated on    6 nodes for type:  1
       PAW data deallocated on    8 nodes for type:  2
       PAW data deallocated on    6 nodes for type:  3

     Band Structure Calculation
     Davidson diagonalization with overlap

     Computing kpt #:     1  of   101
     total cpu time spent up to now is        2.5 secs

     Computing kpt #:     2  of   101
     total cpu time spent up to now is        3.9 secs

     Computing kpt #:     3  of   101
     total cpu time spent up to now is        5.4 secs

     Computing kpt #:     4  of   101
     total cpu time spent up to now is        6.9 secs

     Computing kpt #:     5  of   101
     total cpu time spent up to now is        8.2 secs

     Computing kpt #:     6  of   101
     total cpu time spent up to now is       10.0 secs

     Computing kpt #:     7  of   101
     total cpu time spent up to now is       11.8 secs

     Computing kpt #:     8  of   101
     total cpu time spent up to now is       13.3 secs

     Computing kpt #:     9  of   101
     total cpu time spent up to now is       14.8 secs

     Computing kpt #:    10  of   101
     total cpu time spent up to now is       16.6 secs

     Computing kpt #:    11  of   101
     total cpu time spent up to now is       18.2 secs

     Computing kpt #:    12  of   101
     total cpu time spent up to now is       19.7 secs

     Computing kpt #:    13  of   101
     total cpu time spent up to now is       21.2 secs

     Computing kpt #:    14  of   101
     total cpu time spent up to now is       22.7 secs

     Computing kpt #:    15  of   101
     total cpu time spent up to now is       24.1 secs

     Computing kpt #:    16  of   101
     total cpu time spent up to now is       25.4 secs

     Computing kpt #:    17  of   101
     total cpu time spent up to now is       26.7 secs

     Computing kpt #:    18  of   101
     total cpu time spent up to now is       28.0 secs

     Computing kpt #:    19  of   101
     total cpu time spent up to now is       29.3 secs

     Computing kpt #:    20  of   101
     total cpu time spent up to now is       30.6 secs

     Computing kpt #:    21  of   101
     total cpu time spent up to now is       31.9 secs

     Computing kpt #:    22  of   101
     total cpu time spent up to now is       33.1 secs

     Computing kpt #:    23  of   101
     total cpu time spent up to now is       34.3 secs

     Computing kpt #:    24  of   101
     total cpu time spent up to now is       35.5 secs

     Computing kpt #:    25  of   101
     total cpu time spent up to now is       36.7 secs

     Computing kpt #:    26  of   101
     total cpu time spent up to now is       38.0 secs

     Computing kpt #:    27  of   101
     total cpu time spent up to now is       39.5 secs

     Computing kpt #:    28  of   101
     total cpu time spent up to now is       41.1 secs

     Computing kpt #:    29  of   101
     total cpu time spent up to now is       43.0 secs

     Computing kpt #:    30  of   101
     total cpu time spent up to now is       44.4 secs

     Computing kpt #:    31  of   101
     total cpu time spent up to now is       45.9 secs

     Computing kpt #:    32  of   101
     total cpu time spent up to now is       47.3 secs

     Computing kpt #:    33  of   101
     total cpu time spent up to now is       48.6 secs

     Computing kpt #:    34  of   101
     total cpu time spent up to now is       49.9 secs

     Computing kpt #:    35  of   101
     total cpu time spent up to now is       51.2 secs

     Computing kpt #:    36  of   101
     total cpu time spent up to now is       52.5 secs

     Computing kpt #:    37  of   101
     total cpu time spent up to now is       53.7 secs

     Computing kpt #:    38  of   101
     total cpu time spent up to now is       54.9 secs

     Computing kpt #:    39  of   101
     total cpu time spent up to now is       56.2 secs

     Computing kpt #:    40  of   101
     total cpu time spent up to now is       57.4 secs

     Computing kpt #:    41  of   101
     total cpu time spent up to now is       58.6 secs

     Computing kpt #:    42  of   101
     total cpu time spent up to now is       59.7 secs

     Computing kpt #:    43  of   101
     total cpu time spent up to now is       61.0 secs

     Computing kpt #:    44  of   101
     total cpu time spent up to now is       62.2 secs

     Computing kpt #:    45  of   101
     total cpu time spent up to now is       63.5 secs

     Computing kpt #:    46  of   101
     total cpu time spent up to now is       64.9 secs

     Computing kpt #:    47  of   101
     total cpu time spent up to now is       66.4 secs

     Computing kpt #:    48  of   101
     total cpu time spent up to now is       67.7 secs

     Computing kpt #:    49  of   101
     total cpu time spent up to now is       68.9 secs

     Computing kpt #:    50  of   101
     total cpu time spent up to now is       70.1 secs

     Computing kpt #:    51  of   101
     total cpu time spent up to now is       71.3 secs

     Computing kpt #:    52  of   101
     total cpu time spent up to now is       72.6 secs

     Computing kpt #:    53  of   101
     total cpu time spent up to now is       73.8 secs

     Computing kpt #:    54  of   101
     total cpu time spent up to now is       75.6 secs

     Computing kpt #:    55  of   101
     total cpu time spent up to now is       77.0 secs

     Computing kpt #:    56  of   101
     total cpu time spent up to now is       78.5 secs

     Computing kpt #:    57  of   101
     total cpu time spent up to now is       79.9 secs

     Computing kpt #:    58  of   101
     total cpu time spent up to now is       81.4 secs

     Computing kpt #:    59  of   101
     total cpu time spent up to now is       82.9 secs

     Computing kpt #:    60  of   101
     total cpu time spent up to now is       84.5 secs

     Computing kpt #:    61  of   101
     total cpu time spent up to now is       86.1 secs

     Computing kpt #:    62  of   101
     total cpu time spent up to now is       87.8 secs

     Computing kpt #:    63  of   101
     total cpu time spent up to now is       89.4 secs

     Computing kpt #:    64  of   101
     total cpu time spent up to now is       91.0 secs

     Computing kpt #:    65  of   101
     total cpu time spent up to now is       92.6 secs

     Computing kpt #:    66  of   101
     total cpu time spent up to now is       94.1 secs

     Computing kpt #:    67  of   101
     total cpu time spent up to now is       95.7 secs

     Computing kpt #:    68  of   101
     total cpu time spent up to now is       97.1 secs

     Computing kpt #:    69  of   101
     total cpu time spent up to now is       98.6 secs

     Computing kpt #:    70  of   101
     total cpu time spent up to now is      100.4 secs

     Computing kpt #:    71  of   101
     total cpu time spent up to now is      102.4 secs

     Computing kpt #:    72  of   101
     total cpu time spent up to now is      104.2 secs

     Computing kpt #:    73  of   101
     total cpu time spent up to now is      105.7 secs

     Computing kpt #:    74  of   101
     total cpu time spent up to now is      106.9 secs

     Computing kpt #:    75  of   101
     total cpu time spent up to now is      108.1 secs

     Computing kpt #:    76  of   101
     total cpu time spent up to now is      109.5 secs

     Computing kpt #:    77  of   101
     total cpu time spent up to now is      110.9 secs

     Computing kpt #:    78  of   101
     total cpu time spent up to now is      112.4 secs

     Computing kpt #:    79  of   101
     total cpu time spent up to now is      113.8 secs

     Computing kpt #:    80  of   101
     total cpu time spent up to now is      115.3 secs

     Computing kpt #:    81  of   101
     total cpu time spent up to now is      116.6 secs

     Computing kpt #:    82  of   101
     total cpu time spent up to now is      117.9 secs

     Computing kpt #:    83  of   101
     total cpu time spent up to now is      119.2 secs

     Computing kpt #:    84  of   101
     total cpu time spent up to now is      120.4 secs

     Computing kpt #:    85  of   101
     total cpu time spent up to now is      121.8 secs

     Computing kpt #:    86  of   101
     total cpu time spent up to now is      123.2 secs

     Computing kpt #:    87  of   101
     total cpu time spent up to now is      124.7 secs

     Computing kpt #:    88  of   101
     total cpu time spent up to now is      126.2 secs

     Computing kpt #:    89  of   101
     total cpu time spent up to now is      127.7 secs

     Computing kpt #:    90  of   101
     total cpu time spent up to now is      129.1 secs

     Computing kpt #:    91  of   101
     total cpu time spent up to now is      130.6 secs

     Computing kpt #:    92  of   101
     total cpu time spent up to now is      131.9 secs

     Computing kpt #:    93  of   101
     total cpu time spent up to now is      133.4 secs

     Computing kpt #:    94  of   101
     total cpu time spent up to now is      134.9 secs

     Computing kpt #:    95  of   101
     total cpu time spent up to now is      136.4 secs

     Computing kpt #:    96  of   101
     total cpu time spent up to now is      138.2 secs

     Computing kpt #:    97  of   101
     total cpu time spent up to now is      140.0 secs

     Computing kpt #:    98  of   101
     total cpu time spent up to now is      141.8 secs

     Computing kpt #:    99  of   101
     total cpu time spent up to now is      143.4 secs

     Computing kpt #:   100  of   101
     total cpu time spent up to now is      145.0 secs

     Computing kpt #:   101  of   101
     total cpu time spent up to now is      146.5 secs

     ethr =  6.11E-07,  avg # of iterations = 24.5

     total cpu time spent up to now is      146.5 secs

     End of band structure calculation

          k = 0.5000 0.2500 0.7500 (  8624 PWs)   bands (ev):

   -36.0919 -36.0915 -36.0911 -36.0293 -14.1888 -14.1819 -14.1815 -14.1773
   -14.1682 -14.1621 -14.1604 -14.1601 -14.1567 -14.1111 -14.1093 -14.1073
    -7.7646  -7.7572  -7.7562  -7.7555  -7.7548  -7.7503  -7.7493  -7.7472
    -7.7461  -7.7455  -7.7445  -7.7417  -7.7390  -7.7367  -7.7356  -7.7353
    -7.7353  -7.7340  -7.7335  -7.7298   4.7697   4.7752   5.4993   5.5044
     8.3344   8.3387   8.8858   8.8898   9.6742   9.6779   9.9494   9.9553
    10.1154  10.1197  10.2657  10.2706  10.9238  10.9251  10.9257  10.9265
    10.9372  10.9372  10.9978  10.9996  11.0966  11.0980  11.1123  11.1143
    11.7178  11.7208  12.0713  12.0740  12.0998  12.1027  12.1878  12.1903
    14.1684  14.1766  14.5461  14.5526  14.6663  14.6712  14.6880  14.6921
    15.1086  15.1255  15.3224  15.3320  16.5130  16.5227  16.6943  16.7011
    17.0792  17.0840  17.2692  17.2720

          k = 0.4750 0.2625 0.7125 (  8594 PWs)   bands (ev):

   -36.0918 -36.0914 -36.0912 -36.0292 -14.1902 -14.1833 -14.1824 -14.1791
   -14.1668 -14.1618 -14.1601 -14.1599 -14.1572 -14.1108 -14.1095 -14.1076
    -7.7629  -7.7566  -7.7545  -7.7539  -7.7532  -7.7495  -7.7487  -7.7471
    -7.7455  -7.7453  -7.7443  -7.7407  -7.7390  -7.7363  -7.7359  -7.7353
    -7.7348  -7.7338  -7.7337  -7.7305   4.7902   4.9226   5.4856   5.4954
     8.2511   8.2584   8.7031   8.8427   9.7162   9.7214   9.8976   9.9337
    10.0886  10.0943  10.1998  10.2252  10.9133  10.9150  10.9324  10.9370
    10.9394  10.9408  10.9872  10.9902  11.0675  11.0769  11.0797  11.0821
    11.7992  11.8025  12.0591  12.1156  12.1191  12.1309  12.1905  12.2148
    14.2425  14.2825  14.5669  14.5787  14.6827  14.7093  14.7182  14.7484
    15.0923  15.1090  15.2435  15.2951  16.6592  16.6757  16.8226  16.8475
    16.9336  17.0676  17.3042  17.5065

          k = 0.4500 0.2750 0.6750 (  8588 PWs)   bands (ev):

   -36.0917 -36.0914 -36.0912 -36.0292 -14.1915 -14.1845 -14.1831 -14.1807
   -14.1655 -14.1619 -14.1598 -14.1594 -14.1576 -14.1107 -14.1096 -14.1080
    -7.7614  -7.7561  -7.7531  -7.7524  -7.7519  -7.7488  -7.7482  -7.7471
    -7.7451  -7.7449  -7.7442  -7.7400  -7.7387  -7.7362  -7.7360  -7.7352
    -7.7345  -7.7339  -7.7334  -7.7311   4.8185   5.0695   5.4521   5.4886
     8.1811   8.2084   8.5218   8.7801   9.7525   9.7633   9.8607   9.9328
    10.0653  10.0806  10.1377  10.1789  10.9077  10.9086  10.9358  10.9399
    10.9435  10.9501  10.9773  10.9847  11.0371  11.0472  11.0525  11.0585
    11.8706  11.8805  12.0457  12.1311  12.1396  12.1732  12.1904  12.2394
    14.3198  14.3899  14.5407  14.5762  14.6721  14.7826  14.7972  14.8100
    15.0748  15.0995  15.1694  15.2583  16.7156  16.7562  16.8140  16.9652
    17.0261  17.0600  17.3118  17.7242

          k = 0.4250 0.2875 0.6375 (  8584 PWs)   bands (ev):

   -36.0917 -36.0914 -36.0912 -36.0292 -14.1925 -14.1853 -14.1837 -14.1821
   -14.1644 -14.1621 -14.1596 -14.1589 -14.1581 -14.1106 -14.1095 -14.1083
    -7.7601  -7.7557  -7.7519  -7.7513  -7.7509  -7.7482  -7.7479  -7.7470
    -7.7449  -7.7444  -7.7441  -7.7397  -7.7381  -7.7365  -7.7359  -7.7351
    -7.7346  -7.7337  -7.7331  -7.7315   4.8567   5.2065   5.3982   5.4834
     8.1262   8.1943   8.3559   8.7062   9.7820   9.7991   9.8385   9.9437
    10.0463  10.0792  10.0864  10.1317  10.9046  10.9090  10.9267  10.9460
    10.9473  10.9640  10.9665  10.9800  11.0070  11.0191  11.0331  11.0402
    11.9274  11.9536  12.0331  12.1454  12.1617  12.1878  12.1992  12.2577
    14.4031  14.4894  14.5131  14.5826  14.6567  14.8386  14.8506  14.8613
    15.0536  15.1124  15.1187  15.2118  16.7283  16.7356  16.7494  16.9632
    17.1246  17.2813  17.3059  17.5866

          k = 0.4000 0.3000 0.6000 (  8594 PWs)   bands (ev):

   -36.0917 -36.0914 -36.0913 -36.0292 -14.1932 -14.1859 -14.1843 -14.1832
   -14.1636 -14.1621 -14.1595 -14.1586 -14.1585 -14.1106 -14.1095 -14.1085
    -7.7593  -7.7554  -7.7511  -7.7505  -7.7502  -7.7478  -7.7478  -7.7469
    -7.7447  -7.7440  -7.7440  -7.7397  -7.7377  -7.7365  -7.7358  -7.7349
    -7.7346  -7.7336  -7.7331  -7.7318   4.9038   5.3229   5.3271   5.4798
     8.0878   8.2151   8.2204   8.6282   9.8034   9.8267   9.8286   9.9516
    10.0331  10.0556  10.0865  10.0877  10.9039  10.9149  10.9152  10.9472
    10.9533  10.9548  10.9716  10.9779  10.9790  11.0027  11.0223  11.0250
    11.9667  12.0199  12.0212  12.1576  12.1825  12.1837  12.2118  12.2629
    14.4898  14.4920  14.5574  14.6040  14.6514  14.8598  14.8738  14.8741
    15.0434  15.0916  15.1538  15.1588  16.6983  16.7013  16.7215  16.8889
    17.2990  17.2996  17.4617  17.5008

          k = 0.3750 0.3125 0.5625 (  8584 PWs)   bands (ev):

   -36.0916 -36.0914 -36.0913 -36.0292 -14.1936 -14.1861 -14.1848 -14.1836
   -14.1634 -14.1615 -14.1595 -14.1590 -14.1583 -14.1104 -14.1096 -14.1085
    -7.7588  -7.7552  -7.7506  -7.7501  -7.7498  -7.7478  -7.7476  -7.7467
    -7.7445  -7.7439  -7.7437  -7.7396  -7.7377  -7.7360  -7.7356  -7.7349
    -7.7345  -7.7338  -7.7332  -7.7318   4.9584   5.2354   5.4150   5.4779
     8.0665   8.1196   8.2774   8.5525   9.8153   9.8237   9.8519   9.9383
    10.0261  10.0505  10.0594  10.0966  10.9049  10.9067  10.9243  10.9423
    10.9428  10.9534  10.9596  10.9651  10.9927  10.9994  11.0106  11.0198
    11.9870  12.0071  12.0807  12.1662  12.1775  12.2020  12.2111  12.2531
    14.4765  14.5468  14.5809  14.6399  14.6951  14.8392  14.8506  14.8600
    15.0551  15.1025  15.1087  15.1883  16.6673  16.6974  16.7118  16.8156
    17.2998  17.3888  17.4801  17.6446

          k = 0.3500 0.3250 0.5250 (  8586 PWs)   bands (ev):

   -36.0916 -36.0914 -36.0913 -36.0292 -14.1936 -14.1860 -14.1852 -14.1836
   -14.1636 -14.1608 -14.1597 -14.1595 -14.1581 -14.1103 -14.1098 -14.1084
    -7.7588  -7.7551  -7.7505  -7.7501  -7.7498  -7.7479  -7.7476  -7.7467
    -7.7444  -7.7438  -7.7436  -7.7395  -7.7380  -7.7357  -7.7355  -7.7350
    -7.7344  -7.7341  -7.7334  -7.7317   5.0189   5.1338   5.4668   5.4781
     8.0623   8.0721   8.3695   8.4849   9.8164   9.8212   9.8757   9.9119
    10.0245  10.0310  10.0823  10.1015  10.9045  10.9076  10.9324  10.9339
    10.9359  10.9372  10.9627  10.9653  11.0020  11.0041  11.0073  11.0176
    11.9886  11.9921  12.1325  12.1686  12.1723  12.1899  12.2171  12.2363
    14.4699  14.5038  14.6670  14.6843  14.7468  14.7894  14.7985  14.8136
    15.0672  15.0824  15.1455  15.1912  16.6862  16.7111  16.7143  16.7568
    17.2965  17.3174  17.6514  17.7351

          k = 0.3250 0.3375 0.4875 (  8585 PWs)   bands (ev):

   -36.0916 -36.0914 -36.0913 -36.0292 -14.1933 -14.1858 -14.1850 -14.1833
   -14.1639 -14.1606 -14.1600 -14.1596 -14.1580 -14.1103 -14.1098 -14.1084
    -7.7591  -7.7552  -7.7508  -7.7504  -7.7500  -7.7480  -7.7477  -7.7467
    -7.7445  -7.7440  -7.7436  -7.7395  -7.7382  -7.7356  -7.7355  -7.7350
    -7.7344  -7.7342  -7.7335  -7.7316   5.0249   5.0837   5.4749   5.4803
     8.0751   8.0804   8.4298   8.4892   9.8084   9.8131   9.8834   9.9023
    10.0285  10.0336  10.0979  10.1091  10.9060  10.9087  10.9311  10.9333
    10.9360  10.9369  10.9648  10.9674  11.0080  11.0091  11.0153  11.0209
    11.9731  11.9751  12.1429  12.1640  12.1671  12.1732  12.2198  12.2296
    14.4536  14.4738  14.6863  14.6928  14.7557  14.7652  14.7692  14.7921
    15.0685  15.0825  15.1656  15.1915  16.7241  16.7285  16.7304  16.7638
    17.2518  17.2639  17.6800  17.7429

          k = 0.3000 0.3500 0.4500 (  8583 PWs)   bands (ev):

   -36.0917 -36.0914 -36.0912 -36.0292 -14.1928 -14.1855 -14.1842 -14.1825
   -14.1643 -14.1615 -14.1596 -14.1593 -14.1580 -14.1105 -14.1096 -14.1083
    -7.7598  -7.7555  -7.7515  -7.7510  -7.7505  -7.7482  -7.7478  -7.7469
    -7.7447  -7.7443  -7.7439  -7.7396  -7.7383  -7.7360  -7.7357  -7.7351
    -7.7345  -7.7339  -7.7333  -7.7315   4.9137   5.1500   5.4428   5.4819
     8.1076   8.1394   8.3915   8.6299   9.7923   9.8001   9.8566   9.9286
    10.0403  10.0565  10.0929  10.1294  10.9060  10.9074  10.9319  10.9391
    10.9428  10.9479  10.9674  10.9727  11.0125  11.0169  11.0240  11.0344
    11.9436  11.9552  12.0779  12.1532  12.1613  12.1943  12.2010  12.2448
    14.4120  14.4764  14.5828  14.6246  14.6966  14.8087  14.8212  14.8335
    15.0638  15.0940  15.1348  15.2169  16.7280  16.7384  16.7453  16.8881
    17.1626  17.2399  17.4486  17.6707

          k = 0.2750 0.3625 0.4125 (  8582 PWs)   bands (ev):

   -36.0917 -36.0913 -36.0912 -36.0292 -14.1920 -14.1850 -14.1832 -14.1814
   -14.1648 -14.1625 -14.1597 -14.1587 -14.1580 -14.1107 -14.1094 -14.1082
    -7.7607  -7.7560  -7.7526  -7.7518  -7.7514  -7.7483  -7.7480  -7.7472
    -7.7451  -7.7447  -7.7444  -7.7399  -7.7381  -7.7368  -7.7361  -7.7351
    -7.7346  -7.7336  -7.7330  -7.7314   4.8042   5.2159   5.3738   5.4860
     8.1555   8.2428   8.3726   8.7847   9.7655   9.7922   9.8286   9.9496
    10.0560  10.0953  10.0997  10.1441  10.9035  10.9111  10.9253  10.9467
    10.9524  10.9685  10.9742  10.9897  11.0101  11.0276  11.0445  11.0496
    11.9001  11.9346  12.0004  12.1349  12.1567  12.1781  12.1943  12.2638
    14.3766  14.4657  14.4732  14.5480  14.6322  14.8458  14.8601  14.8680
    15.0513  15.1145  15.1313  15.2149  16.7105  16.7590  16.7628  17.0407
    17.0542  17.1988  17.2642  17.5524

          k = 0.2500 0.3750 0.3750 (  8593 PWs)   bands (ev):

   -36.0918 -36.0913 -36.0912 -36.0292 -14.1911 -14.1842 -14.1820 -14.1799
   -14.1657 -14.1633 -14.1598 -14.1582 -14.1581 -14.1108 -14.1093 -14.1079
    -7.7620  -7.7566  -7.7539  -7.7528  -7.7525  -7.7487  -7.7484  -7.7476
    -7.7455  -7.7451  -7.7451  -7.7403  -7.7379  -7.7377  -7.7364  -7.7351
    -7.7345  -7.7334  -7.7326  -7.7313   4.6998   5.2770   5.2811   5.4913
     8.2193   8.3726   8.3778   8.9443   9.7298   9.7956   9.7978   9.9584
    10.0771  10.1209  10.1547  10.1556  10.9006  10.9181  10.9190  10.9457
    10.9680  10.9700  11.0028  11.0102  11.0141  11.0449  11.0668  11.0693
    11.8439  11.9138  11.9148  12.1123  12.1517  12.1531  12.1808  12.2780
    14.3473  14.3499  14.4370  14.4740  14.5875  14.8620  14.8760  14.8815
    15.0513  15.1206  15.1874  15.1928  16.6357  16.7845  16.7866  16.9514
    16.9519  17.1989  17.2168  17.5325

          k = 0.2250 0.3875 0.3375 (  8593 PWs)   bands (ev):

   -36.0919 -36.0913 -36.0912 -36.0292 -14.1899 -14.1833 -14.1809 -14.1780
   -14.1669 -14.1637 -14.1600 -14.1583 -14.1576 -14.1109 -14.1092 -14.1076
    -7.7636  -7.7574  -7.7554  -7.7542  -7.7538  -7.7494  -7.7488  -7.7479
    -7.7460  -7.7458  -7.7454  -7.7410  -7.7385  -7.7377  -7.7367  -7.7352
    -7.7343  -7.7332  -7.7325  -7.7308   4.6034   5.1682   5.3373   5.4977
     8.2976   8.4005   8.5201   9.0959   9.6877   9.7587   9.8208   9.9648
    10.1033  10.1658  10.1694  10.2204  10.8994  10.9130  10.9256  10.9418
    10.9695  10.9861  11.0030  11.0314  11.0419  11.0762  11.0910  11.0934
    11.7756  11.8220  11.8962  12.0894  12.1266  12.1477  12.1590  12.2831
    14.2328  14.3270  14.3600  14.4061  14.5729  14.8442  14.8724  14.8758
    15.0745  15.1546  15.1610  15.2635  16.5254  16.6620  16.8065  16.8224
    16.8732  17.0265  17.3216  17.6699

          k = 0.2000 0.4000 0.3000 (  8579 PWs)   bands (ev):

   -36.0919 -36.0913 -36.0911 -36.0292 -14.1886 -14.1821 -14.1798 -14.1761
   -14.1683 -14.1639 -14.1603 -14.1585 -14.1570 -14.1110 -14.1090 -14.1072
    -7.7653  -7.7582  -7.7571  -7.7559  -7.7553  -7.7505  -7.7494  -7.7480
    -7.7467  -7.7462  -7.7456  -7.7420  -7.7389  -7.7377  -7.7367  -7.7354
    -7.7339  -7.7332  -7.7325  -7.7301   4.5171   5.0498   5.3890   5.5047
     8.3889   8.4485   8.6611   9.2219   9.6422   9.7143   9.8712   9.9902
    10.1338  10.1815  10.2307  10.2918  10.8998  10.9089  10.9295  10.9360
    10.9702  10.9992  11.0015  11.0425  11.0788  11.1147  11.1164  11.1218
    11.6957  11.7251  11.8825  12.0708  12.1045  12.1318  12.1420  12.2778
    14.1196  14.2623  14.3099  14.3466  14.5697  14.8039  14.8474  14.8602
    15.1080  15.1404  15.2218  15.3450  16.3861  16.4261  16.7508  16.7593
    16.8070  16.8890  17.3121  17.6084

          k = 0.1750 0.4125 0.2625 (  8593 PWs)   bands (ev):

   -36.0920 -36.0914 -36.0911 -36.0292 -14.1871 -14.1808 -14.1788 -14.1743
   -14.1698 -14.1640 -14.1607 -14.1587 -14.1565 -14.1113 -14.1086 -14.1068
    -7.7672  -7.7592  -7.7588  -7.7577  -7.7569  -7.7516  -7.7502  -7.7481
    -7.7474  -7.7465  -7.7458  -7.7432  -7.7390  -7.7378  -7.7367  -7.7356
    -7.7336  -7.7330  -7.7327  -7.7292   4.4428   4.9300   5.4332   5.5122
     8.4906   8.5173   8.7853   9.3048   9.5964   9.6651   9.9518  10.0517
    10.1669  10.2008  10.3011  10.3662  10.9015  10.9058  10.9282  10.9290
    10.9708  10.9943  11.0148  11.0512  11.1192  11.1411  11.1500  11.1528
    11.6051  11.6246  11.8761  12.0609  12.0895  12.1027  12.1343  12.2624
    14.0090  14.1558  14.2940  14.2979  14.5685  14.7523  14.8211  14.8301
    15.1310  15.1487  15.3118  15.4339  16.1921  16.2202  16.6009  16.6403
    16.6844  16.9437  17.1675  17.5914

          k = 0.1500 0.4250 0.2250 (  8604 PWs)   bands (ev):

   -36.0921 -36.0914 -36.0910 -36.0293 -14.1855 -14.1795 -14.1778 -14.1729
   -14.1710 -14.1642 -14.1612 -14.1587 -14.1559 -14.1116 -14.1081 -14.1063
    -7.7691  -7.7609  -7.7602  -7.7592  -7.7587  -7.7527  -7.7512  -7.7482
    -7.7479  -7.7468  -7.7460  -7.7444  -7.7390  -7.7380  -7.7366  -7.7359
    -7.7336  -7.7330  -7.7325  -7.7284   4.3817   4.8137   5.4694   5.5199
     8.5989   8.6043   8.8854   9.3402   9.5539   9.6148  10.0608  10.1500
    10.2005  10.2232  10.3755  10.4399  10.9019  10.9040  10.9190  10.9230
    10.9712  10.9868  11.0272  11.0584  11.1654  11.1691  11.1741  11.1819
    11.5067  11.5225  11.8796  12.0630  12.0747  12.0854  12.1242  12.2380
    13.9006  14.0433  14.2603  14.2796  14.5675  14.6966  14.7992  14.8004
    15.1417  15.1725  15.4224  15.5312  15.9758  16.0237  16.4303  16.5005
    16.6136  16.9937  16.9981  17.5141

          k = 0.1250 0.4375 0.1875 (  8606 PWs)   bands (ev):

   -36.0921 -36.0915 -36.0910 -36.0293 -14.1838 -14.1783 -14.1769 -14.1727
   -14.1714 -14.1646 -14.1619 -14.1581 -14.1554 -14.1120 -14.1074 -14.1060
    -7.7710  -7.7627  -7.7619  -7.7606  -7.7599  -7.7537  -7.7521  -7.7484
    -7.7480  -7.7470  -7.7462  -7.7455  -7.7390  -7.7382  -7.7365  -7.7360
    -7.7338  -7.7333  -7.7319  -7.7275   4.3349   4.7043   5.4978   5.5275
     8.7019   8.7109   8.9618   9.3400   9.5182   9.5677  10.1891  10.2311
    10.2454  10.2681  10.4501  10.5093  10.8946  10.9061  10.9080  10.9126
    10.9718  10.9755  11.0388  11.0641  11.1878  11.1998  11.2035  11.2206
    11.4058  11.4225  11.8951  12.0524  12.0770  12.0923  12.1115  12.2067
    13.7946  13.9262  14.2371  14.2648  14.5664  14.6438  14.7794  14.7880
    15.1510  15.1877  15.5496  15.6390  15.7771  15.8175  16.2921  16.3566
    16.5485  16.8288  17.0284  17.3716

          k = 0.1000 0.4500 0.1500 (  8613 PWs)   bands (ev):

   -36.0922 -36.0915 -36.0909 -36.0293 -14.1821 -14.1773 -14.1763 -14.1729
   -14.1712 -14.1652 -14.1628 -14.1572 -14.1550 -14.1124 -14.1066 -14.1056
    -7.7727  -7.7643  -7.7636  -7.7622  -7.7606  -7.7546  -7.7529  -7.7487
    -7.7480  -7.7474  -7.7463  -7.7461  -7.7390  -7.7385  -7.7364  -7.7361
    -7.7339  -7.7336  -7.7313  -7.7268   4.3031   4.6045   5.5189   5.5348
     8.8049   8.8175   9.0199   9.3192   9.4931   9.5285  10.2552  10.2636
    10.3230  10.3856  10.5205  10.5704  10.8804  10.8947  10.8989  10.9060
    10.9603  10.9735  11.0488  11.0678  11.1908  11.2066  11.2445  11.2818
    11.3115  11.3315  11.9236  12.0393  12.0963  12.1002  12.1091  12.1711
    13.6927  13.8069  14.2277  14.2527  14.5637  14.5998  14.7750  14.7856
    15.1512  15.1867  15.6020  15.6259  15.6912  15.7593  16.1796  16.2246
    16.4904  16.6843  17.0083  17.1891

          k = 0.0750 0.4625 0.1125 (  8609 PWs)   bands (ev):

   -36.0922 -36.0915 -36.0909 -36.0293 -14.1805 -14.1768 -14.1762 -14.1722
   -14.1712 -14.1660 -14.1638 -14.1560 -14.1546 -14.1128 -14.1060 -14.1053
    -7.7741  -7.7656  -7.7650  -7.7636  -7.7611  -7.7554  -7.7535  -7.7490
    -7.7480  -7.7480  -7.7465  -7.7464  -7.7391  -7.7388  -7.7362  -7.7361
    -7.7341  -7.7339  -7.7307  -7.7262   4.2869   4.5161   5.5334   5.5417
     8.9012   8.9111   9.0662   9.2881   9.4814   9.5020  10.2686  10.2738
    10.4493  10.4903  10.5825  10.6199  10.8578  10.8810  10.8843  10.8962
    10.9477  10.9754  11.0559  11.0684  11.1786  11.1928  11.2436  11.2622
    11.2922  11.3424  11.9631  12.0384  12.0813  12.1265  12.1307  12.1351
    13.5993  13.6907  14.2305  14.2465  14.5554  14.5714  14.7861  14.7945
    15.1292  15.1571  15.4615  15.4786  15.8457  15.8933  16.0885  16.1160
    16.4422  16.5668  16.9176  16.9878

          k = 0.0500 0.4750 0.0750 (  8610 PWs)   bands (ev):

   -36.0922 -36.0915 -36.0908 -36.0293 -14.1790 -14.1770 -14.1758 -14.1717
   -14.1707 -14.1667 -14.1650 -14.1550 -14.1543 -14.1131 -14.1054 -14.1051
    -7.7752  -7.7666  -7.7661  -7.7647  -7.7615  -7.7560  -7.7540  -7.7493
    -7.7484  -7.7479  -7.7465  -7.7465  -7.7391  -7.7390  -7.7360  -7.7360
    -7.7343  -7.7342  -7.7303  -7.7257   4.2864   4.4408   5.5420   5.5478
     8.9784   8.9829   9.1059   9.2526   9.4829   9.4909  10.2700  10.2746
    10.5589  10.5771  10.6317  10.6554  10.8281  10.8683  10.8690  10.8722
    10.9463  10.9754  11.0573  11.0633  11.1497  11.1521  11.2226  11.2289
    11.3408  11.3898  12.0071  12.0487  12.0685  12.1025  12.1507  12.1521
    13.5227  13.5868  14.2409  14.2474  14.5408  14.5602  14.8109  14.8173
    15.0713  15.0875  15.3755  15.3943  16.0133  16.0184  16.0384  16.0424
    16.4071  16.4793  16.7649  16.7818

          k = 0.0250 0.4875 0.0375 (  8633 PWs)   bands (ev):

   -36.0923 -36.0916 -36.0908 -36.0293 -14.1779 -14.1773 -14.1753 -14.1722
   -14.1694 -14.1671 -14.1663 -14.1544 -14.1542 -14.1134 -14.1051 -14.1050
    -7.7759  -7.7673  -7.7668  -7.7654  -7.7618  -7.7563  -7.7543  -7.7496
    -7.7487  -7.7479  -7.7465  -7.7465  -7.7392  -7.7392  -7.7359  -7.7358
    -7.7345  -7.7345  -7.7301  -7.7254   4.3017   4.3795   5.5464   5.5519
     9.0263   9.0270   9.1428   9.2159   9.4912   9.4924  10.2643  10.2693
    10.6434  10.6444  10.6644  10.6755  10.7968  10.8272  10.8614  10.8646
    10.9531  10.9712  11.0514  11.0524  11.1264  11.1267  11.2148  11.2185
    11.3826  11.4133  12.0443  12.0600  12.0635  12.0781  12.1674  12.1676
    13.4752  13.5084  14.2515  14.2525  14.5327  14.5530  14.8504  14.8569
    14.9881  14.9994  15.3398  15.3595  15.9733  15.9930  16.1934  16.2066
    16.3890  16.4222  16.5770  16.5817

          k = 0.0000 0.5000 0.0000 (  8642 PWs)   bands (ev):

   -36.0923 -36.0916 -36.0909 -36.0293 -14.1775 -14.1775 -14.1751 -14.1725
   -14.1683 -14.1673 -14.1673 -14.1541 -14.1541 -14.1134 -14.1050 -14.1050
    -7.7761  -7.7675  -7.7670  -7.7656  -7.7618  -7.7564  -7.7544  -7.7497
    -7.7487  -7.7479  -7.7465  -7.7465  -7.7392  -7.7392  -7.7358  -7.7358
    -7.7346  -7.7346  -7.7300  -7.7254   4.3300   4.3357   5.5479   5.5534
     9.0418   9.0418   9.1771   9.1814   9.4955   9.4955  10.2607  10.2659
    10.6782  10.6782  10.6797  10.6797  10.7875  10.7922  10.8589  10.8622
    10.9620  10.9639  11.0464  11.0464  11.1199  11.1199  11.2122  11.2159
    11.4064  11.4125  12.0608  12.0608  12.0670  12.0670  12.1732  12.1732
    13.4677  13.4701  14.2557  14.2557  14.5309  14.5498  14.9043  14.9043
    14.9147  14.9323  15.3307  15.3506  15.9579  15.9779  16.3711  16.3841
    16.3891  16.3891  16.3968  16.3968

          k = 0.0000 0.4750 0.0000 (  8618 PWs)   bands (ev):

   -36.0923 -36.0915 -36.0908 -36.0293 -14.1775 -14.1775 -14.1756 -14.1719
   -14.1683 -14.1672 -14.1672 -14.1541 -14.1541 -14.1134 -14.1049 -14.1049
    -7.7761  -7.7675  -7.7670  -7.7656  -7.7619  -7.7565  -7.7544  -7.7497
    -7.7488  -7.7480  -7.7467  -7.7467  -7.7392  -7.7392  -7.7360  -7.7360
    -7.7342  -7.7342  -7.7300  -7.7254   4.2555   4.4109   5.5462   5.5517
     9.0389   9.0389   9.1086   9.2541   9.5006   9.5006  10.2656  10.2709
    10.6680  10.6680  10.6893  10.6893  10.7474  10.8291  10.8591  10.8624
    10.9438  10.9823  11.0439  11.0439  11.1219  11.1219  11.2141  11.2178
    11.3790  11.4444  12.0495  12.0495  12.0818  12.0818  12.1733  12.1733
    13.4366  13.5038  14.2439  14.2439  14.5267  14.5539  14.9123  14.9123
    14.9133  14.9309  15.3306  15.3505  15.9579  15.9778  16.3304  16.3564
    16.3564  16.4188  16.4188  16.4262

          k = 0.0000 0.4500 0.0000 (  8626 PWs)   bands (ev):

   -36.0923 -36.0915 -36.0908 -36.0293 -14.1778 -14.1778 -14.1767 -14.1707
   -14.1682 -14.1670 -14.1670 -14.1541 -14.1541 -14.1132 -14.1049 -14.1049
    -7.7761  -7.7677  -7.7671  -7.7654  -7.7622  -7.7567  -7.7546  -7.7498
    -7.7489  -7.7482  -7.7471  -7.7471  -7.7392  -7.7392  -7.7364  -7.7364
    -7.7336  -7.7336  -7.7300  -7.7253   4.1794   4.4889   5.5414   5.5469
     9.0306   9.0306   9.0431   9.3324   9.5155   9.5155  10.2803  10.2855
    10.6566  10.6566  10.6988  10.6988  10.7031  10.8596  10.8625  10.8641
    10.9249  11.0017  11.0369  11.0369  11.1273  11.1273  11.2198  11.2236
    11.3518  11.4849  12.0391  12.0391  12.1024  12.1024  12.1735  12.1735
    13.4066  13.5412  14.2105  14.2105  14.5183  14.5617  14.9091  14.9265
    14.9341  14.9341  15.3305  15.3504  15.9579  15.9776  16.2855  16.3104
    16.3104  16.4328  16.4328  16.4752

          k = 0.0000 0.4250 0.0000 (  8622 PWs)   bands (ev):

   -36.0924 -36.0915 -36.0908 -36.0293 -14.1782 -14.1782 -14.1777 -14.1693
   -14.1680 -14.1666 -14.1666 -14.1541 -14.1541 -14.1129 -14.1048 -14.1048
    -7.7762  -7.7679  -7.7671  -7.7652  -7.7626  -7.7570  -7.7549  -7.7501
    -7.7489  -7.7487  -7.7477  -7.7477  -7.7393  -7.7393  -7.7364  -7.7364
    -7.7329  -7.7329  -7.7300  -7.7253   4.1049   4.5663   5.5335   5.5390
     8.9831   9.0179   9.0179   9.4134   9.5390   9.5390  10.3042  10.3091
    10.6449  10.6449  10.6580  10.7076  10.7076  10.8603  10.8636  10.8930
    10.9065  11.0211  11.0266  11.0266  11.1346  11.1346  11.2296  11.2334
    11.3264  11.5323  12.0322  12.0322  12.1262  12.1262  12.1739  12.1739
    13.3787  13.5816  14.1598  14.1598  14.5089  14.5703  14.9020  14.9192
    14.9659  14.9659  15.3302  15.3501  15.9576  15.9770  16.2422  16.2560
    16.2560  16.4351  16.4351  16.5252

          k = 0.0000 0.4000 0.0000 (  8630 PWs)   bands (ev):

   -36.0924 -36.0914 -36.0908 -36.0293 -14.1788 -14.1787 -14.1787 -14.1678
   -14.1677 -14.1662 -14.1662 -14.1540 -14.1540 -14.1124 -14.1048 -14.1048
    -7.7762  -7.7681  -7.7672  -7.7649  -7.7632  -7.7574  -7.7552  -7.7506
    -7.7493  -7.7489  -7.7485  -7.7485  -7.7397  -7.7397  -7.7362  -7.7362
    -7.7322  -7.7322  -7.7300  -7.7253   4.0326   4.6426   5.5228   5.5282
     8.9294   9.0022   9.0022   9.4964   9.5698   9.5698  10.3360  10.3408
    10.6130  10.6332  10.6332  10.7154  10.7154  10.8613  10.8646  10.8887
    10.9159  11.0142  11.0142  11.0403  11.1428  11.1428  11.2441  11.2479
    11.3018  11.5872  12.0288  12.0288  12.1528  12.1528  12.1744  12.1744
    13.3528  13.6252  14.0965  14.0965  14.4992  14.5788  14.8922  14.9090
    15.0033  15.0033  15.3299  15.3498  15.9566  15.9754  16.1947  16.1947
    16.2008  16.4258  16.4258  16.5756

          k = 0.0000 0.3750 0.0000 (  8618 PWs)   bands (ev):

   -36.0925 -36.0913 -36.0908 -36.0293 -14.1798 -14.1793 -14.1793 -14.1674
   -14.1664 -14.1657 -14.1657 -14.1540 -14.1540 -14.1119 -14.1047 -14.1047
    -7.7763  -7.7684  -7.7673  -7.7646  -7.7640  -7.7580  -7.7555  -7.7513
    -7.7501  -7.7493  -7.7493  -7.7488  -7.7403  -7.7403  -7.7357  -7.7357
    -7.7315  -7.7315  -7.7300  -7.7253   3.9627   4.7171   5.5097   5.5151
     8.8824   8.9846   8.9846   9.5804   9.6065   9.6065  10.3746  10.3790
    10.5689  10.6214  10.6214  10.7224  10.7224  10.8627  10.8661  10.8714
    10.9322  11.0003  11.0003  11.0593  11.1513  11.1513  11.2642  11.2674
    11.2780  11.6496  12.0289  12.0289  12.1748  12.1748  12.1821  12.1821
    13.3289  13.6722  14.0245  14.0245  14.4895  14.5871  14.8794  14.8959
    15.0430  15.0430  15.3294  15.3494  15.9544  15.9725  16.1280  16.1280
    16.1613  16.4055  16.4055  16.6254

          k = 0.0000 0.3500 0.0000 (  8618 PWs)   bands (ev):

   -36.0926 -36.0913 -36.0909 -36.0293 -14.1807 -14.1800 -14.1800 -14.1670
   -14.1652 -14.1652 -14.1649 -14.1539 -14.1539 -14.1113 -14.1045 -14.1045
    -7.7764  -7.7686  -7.7674  -7.7648  -7.7643  -7.7588  -7.7558  -7.7522
    -7.7509  -7.7502  -7.7502  -7.7486  -7.7409  -7.7409  -7.7351  -7.7351
    -7.7308  -7.7308  -7.7300  -7.7253   3.8959   4.7892   5.4946   5.4999
     8.8424   8.9662   8.9662   9.6479   9.6479   9.6648  10.4179  10.4220
    10.5263  10.6096  10.6096  10.7284  10.7284  10.8548  10.8644  10.8678
    10.9424  10.9851  10.9851  11.0779  11.1598  11.1598  11.2514  11.2908
    11.2953  11.7189  12.0323  12.0323  12.1756  12.1756  12.2131  12.2131
    13.3067  13.7229  13.9469  13.9469  14.4798  14.5951  14.8638  14.8797
    15.0827  15.0827  15.3290  15.3489  15.9501  15.9674  16.0573  16.0573
    16.1239  16.3751  16.3751  16.6726

          k = 0.0000 0.3250 0.0000 (  8594 PWs)   bands (ev):

   -36.0926 -36.0912 -36.0908 -36.0293 -14.1815 -14.1807 -14.1807 -14.1666
   -14.1647 -14.1647 -14.1634 -14.1538 -14.1538 -14.1106 -14.1044 -14.1044
    -7.7764  -7.7689  -7.7677  -7.7656  -7.7641  -7.7597  -7.7561  -7.7531
    -7.7519  -7.7510  -7.7510  -7.7485  -7.7416  -7.7416  -7.7345  -7.7345
    -7.7301  -7.7301  -7.7300  -7.7253   3.8323   4.8582   5.4779   5.4831
     8.8097   8.9476   8.9476   9.6930   9.6930   9.7487  10.4638  10.4676
    10.4856  10.5983  10.5983  10.7333  10.7333  10.8392  10.8665  10.8700
    10.9467  10.9690  10.9690  11.0959  11.1681  11.1681  11.2250  11.3252
    11.3298  11.7941  12.0388  12.0388  12.1764  12.1764  12.2459  12.2459
    13.2862  13.7778  13.8660  13.8660  14.4703  14.6028  14.8451  14.8605
    15.1208  15.1208  15.3286  15.3485  15.9431  15.9593  15.9842  15.9842
    16.0885  16.3362  16.3362  16.7058

          k = 0.0000 0.3000 0.0000 (  8590 PWs)   bands (ev):

   -36.0926 -36.0911 -36.0908 -36.0293 -14.1823 -14.1813 -14.1813 -14.1661
   -14.1642 -14.1642 -14.1620 -14.1537 -14.1537 -14.1098 -14.1042 -14.1042
    -7.7765  -7.7691  -7.7682  -7.7663  -7.7638  -7.7608  -7.7563  -7.7542
    -7.7530  -7.7519  -7.7519  -7.7483  -7.7423  -7.7423  -7.7339  -7.7339
    -7.7300  -7.7295  -7.7295  -7.7253   3.7722   4.9237   5.4601   5.4652
     8.7844   8.9295   8.9295   9.7409   9.7409   9.8314  10.4470  10.5101
    10.5135  10.5874  10.5874  10.7373  10.7373  10.8242  10.8689  10.8725
    10.9458  10.9519  10.9519  11.1132  11.1761  11.1761  11.1970  11.3686
    11.3734  11.8740  12.0479  12.0479  12.1773  12.1773  12.2799  12.2799
    13.2673  13.7839  13.7839  13.8370  14.4610  14.6100  14.8232  14.8381
    15.1565  15.1565  15.3282  15.3481  15.9100  15.9100  15.9322  15.9473
    16.0552  16.2903  16.2903  16.6466

          k = 0.0000 0.2750 0.0000 (  8605 PWs)   bands (ev):

   -36.0927 -36.0911 -36.0908 -36.0293 -14.1830 -14.1820 -14.1820 -14.1656
   -14.1638 -14.1638 -14.1606 -14.1536 -14.1536 -14.1090 -14.1041 -14.1041
    -7.7767  -7.7694  -7.7690  -7.7668  -7.7635  -7.7619  -7.7566  -7.7552
    -7.7541  -7.7528  -7.7528  -7.7481  -7.7429  -7.7429  -7.7333  -7.7333
    -7.7300  -7.7289  -7.7289  -7.7253   3.7161   4.9849   5.4416   5.4467
     8.7663   8.9122   8.9122   9.7909   9.7909   9.9124  10.4112  10.5544
    10.5573  10.5769  10.5769  10.7404  10.7404  10.8102  10.8716  10.8752
    10.9338  10.9338  10.9402  11.1296  11.1676  11.1835  11.1835  11.4220
    11.4269  11.9569  12.0594  12.0594  12.1781  12.1781  12.3147  12.3147
    13.2499  13.7019  13.7019  13.9009  14.4522  14.6166  14.7977  14.8121
    15.1892  15.1892  15.3279  15.3478  15.8361  15.8361  15.9167  15.9304
    16.0240  16.2392  16.2392  16.4994

          k = 0.0000 0.2500 0.0000 (  8581 PWs)   bands (ev):

   -36.0928 -36.0910 -36.0908 -36.0293 -14.1835 -14.1826 -14.1826 -14.1651
   -14.1634 -14.1634 -14.1593 -14.1534 -14.1534 -14.1082 -14.1039 -14.1039
    -7.7768  -7.7701  -7.7696  -7.7672  -7.7633  -7.7630  -7.7569  -7.7563
    -7.7552  -7.7536  -7.7536  -7.7479  -7.7436  -7.7436  -7.7327  -7.7327
    -7.7300  -7.7283  -7.7283  -7.7253   3.6641   5.0416   5.4230   5.4280
     8.7552   8.8961   8.8961   9.8422   9.8422   9.9909  10.3780  10.5670
    10.5670  10.5948  10.5973  10.7428  10.7428  10.7972  10.8747  10.8784
    10.9149  10.9149  10.9305  11.1368  11.1452  11.1906  11.1906  11.4859
    11.4909  12.0412  12.0727  12.0727  12.1790  12.1790  12.3496  12.3496
    13.2341  13.6216  13.6216  13.9698  14.4437  14.6228  14.7685  14.7822
    15.2187  15.2187  15.3278  15.3477  15.7639  15.7639  15.8957  15.9077
    15.9948  16.1848  16.1848  16.3499

          k = 0.0000 0.2250 0.0000 (  8589 PWs)   bands (ev):

   -36.0929 -36.0910 -36.0908 -36.0293 -14.1841 -14.1832 -14.1832 -14.1646
   -14.1631 -14.1631 -14.1580 -14.1533 -14.1533 -14.1074 -14.1038 -14.1038
    -7.7769  -7.7712  -7.7698  -7.7675  -7.7641  -7.7630  -7.7575  -7.7569
    -7.7563  -7.7544  -7.7544  -7.7477  -7.7442  -7.7442  -7.7322  -7.7322
    -7.7300  -7.7277  -7.7277  -7.7253   3.6164   5.0933   5.4047   5.4096
     8.7504   8.8812   8.8812   9.8941   9.8941  10.0667  10.3477  10.5579
    10.5579  10.6300  10.6322  10.7445  10.7445  10.7853  10.8779  10.8816
    10.8951  10.8951  10.9171  11.1049  11.1598  11.1970  11.1970  11.5597
    11.5648  12.0873  12.0873  12.1250  12.1799  12.1799  12.3841  12.3841
    13.2198  13.5443  13.5443  14.0438  14.4358  14.6283  14.7352  14.7482
    15.2450  15.2450  15.3278  15.3477  15.6943  15.6943  15.8687  15.8789
    15.9675  16.1289  16.1289  16.2105

          k = 0.0000 0.2000 0.0000 (  8581 PWs)   bands (ev):

   -36.0929 -36.0910 -36.0908 -36.0293 -14.1845 -14.1838 -14.1838 -14.1641
   -14.1628 -14.1628 -14.1569 -14.1531 -14.1531 -14.1066 -14.1036 -14.1036
    -7.7770  -7.7723  -7.7700  -7.7678  -7.7652  -7.7628  -7.7584  -7.7573
    -7.7572  -7.7551  -7.7551  -7.7475  -7.7447  -7.7447  -7.7318  -7.7318
    -7.7300  -7.7273  -7.7273  -7.7253   3.5732   5.1398   5.3872   5.3920
     8.7513   8.8677   8.8677   9.9459   9.9459  10.1391  10.3205  10.5496
    10.5496  10.6596  10.6615  10.7455  10.7455  10.7745  10.8747  10.8747
    10.8813  10.8850  10.9006  11.0723  11.1730  11.2030  11.2030  11.6422
    11.6474  12.1027  12.1027  12.1807  12.1807  12.2064  12.4175  12.4175
    13.2069  13.4711  13.4711  14.1226  14.4284  14.6332  14.6976  14.7097
    15.2679  15.2679  15.3282  15.3480  15.6287  15.6287  15.8358  15.8440
    15.9421  16.0733  16.0733  16.0835

          k = 0.0000 0.1750 0.0000 (  8577 PWs)   bands (ev):

   -36.0930 -36.0909 -36.0907 -36.0293 -14.1849 -14.1843 -14.1843 -14.1636
   -14.1625 -14.1625 -14.1558 -14.1529 -14.1529 -14.1058 -14.1035 -14.1035
    -7.7771  -7.7734  -7.7703  -7.7682  -7.7661  -7.7626  -7.7593  -7.7583
    -7.7574  -7.7557  -7.7557  -7.7474  -7.7452  -7.7452  -7.7313  -7.7313
    -7.7300  -7.7268  -7.7268  -7.7253   3.5348   5.1808   5.3707   5.3755
     8.7568   8.8557   8.8557   9.9967   9.9967  10.2079  10.2964  10.5421
    10.5421  10.6837  10.6853  10.7462  10.7462  10.7647  10.8537  10.8537
    10.8810  10.8847  10.8884  11.0399  11.1851  11.2083  11.2083  11.7309
    11.7361  12.1182  12.1182  12.1814  12.1814  12.2835  12.4493  12.4493
    13.1955  13.4032  13.4032  14.2055  14.4217  14.6363  14.6568  14.6668
    15.2877  15.2877  15.3289  15.3487  15.5679  15.5679  15.7979  15.8040
    15.9184  15.9701  16.0197  16.0197

          k = 0.0000 0.1500 0.0000 (  8581 PWs)   bands (ev):

   -36.0930 -36.0909 -36.0908 -36.0293 -14.1852 -14.1847 -14.1847 -14.1632
   -14.1623 -14.1623 -14.1549 -14.1528 -14.1528 -14.1051 -14.1033 -14.1033
    -7.7772  -7.7744  -7.7705  -7.7687  -7.7669  -7.7625  -7.7601  -7.7592
    -7.7576  -7.7563  -7.7563  -7.7472  -7.7456  -7.7456  -7.7310  -7.7310
    -7.7300  -7.7264  -7.7264  -7.7253   3.5012   5.2162   5.3558   5.3605
     8.7657   8.8452   8.8452  10.0455  10.0455  10.2723  10.2758  10.5357
    10.5357  10.7026  10.7041  10.7465  10.7465  10.7562  10.8324  10.8324
    10.8590  10.8878  10.8915  11.0084  11.1957  11.2129  11.2129  11.8227
    11.8278  12.1332  12.1332  12.1821  12.1821  12.3544  12.4787  12.4787
    13.1855  13.3418  13.3418  14.2913  14.4158  14.6075  14.6201  14.6435
    15.3043  15.3043  15.3300  15.3498  15.5131  15.5131  15.7569  15.7609
    15.8709  15.8963  15.9696  15.9696

          k = 0.0000 0.1250 0.0000 (  8577 PWs)   bands (ev):

   -36.0930 -36.0909 -36.0908 -36.0293 -14.1854 -14.1851 -14.1851 -14.1628
   -14.1622 -14.1622 -14.1541 -14.1526 -14.1526 -14.1045 -14.1032 -14.1032
    -7.7773  -7.7754  -7.7707  -7.7693  -7.7675  -7.7623  -7.7608  -7.7600
    -7.7577  -7.7568  -7.7568  -7.7471  -7.7460  -7.7460  -7.7307  -7.7307
    -7.7300  -7.7261  -7.7261  -7.7253   3.4726   5.2460   5.3427   5.3473
     8.7767   8.8363   8.8363  10.0912  10.0912  10.2577  10.3329  10.5301
    10.5301  10.7172  10.7186  10.7465  10.7465  10.7490  10.8114  10.8114
    10.8349  10.8906  10.8944  10.9788  11.2049  11.2170  11.2170  11.9134
    11.9184  12.1472  12.1472  12.1827  12.1827  12.4174  12.5050  12.5050
    13.1771  13.2878  13.2878  14.3776  14.4106  14.5593  14.5710  14.6462
    15.3180  15.3180  15.3314  15.3512  15.4651  15.4651  15.7153  15.7173
    15.7864  15.8756  15.9245  15.9245

          k = 0.0000 0.1000 0.0000 (  8577 PWs)   bands (ev):

   -36.0930 -36.0908 -36.0908 -36.0293 -14.1856 -14.1854 -14.1854 -14.1625
   -14.1621 -14.1621 -14.1534 -14.1525 -14.1525 -14.1039 -14.1031 -14.1031
    -7.7774  -7.7761  -7.7708  -7.7699  -7.7679  -7.7622  -7.7613  -7.7606
    -7.7578  -7.7573  -7.7573  -7.7470  -7.7463  -7.7463  -7.7304  -7.7304
    -7.7300  -7.7258  -7.7258  -7.7253   3.4490   5.2702   5.3316   5.3361
     8.7885   8.8291   8.8291  10.1324  10.1324  10.2433  10.3881  10.5255
    10.5255  10.7282  10.7295  10.7431  10.7465  10.7465  10.7913  10.7913
    10.8093  10.8930  10.8968  10.9525  11.2126  11.2204  11.2204  11.9986
    12.0034  12.1594  12.1594  12.1832  12.1832  12.4709  12.5276  12.5276
    13.1702  13.2422  13.2422  14.4062  14.4600  14.5107  14.5228  14.6488
    15.3287  15.3287  15.3332  15.3530  15.4249  15.4249  15.6761  15.6764
    15.7169  15.8565  15.8857  15.8857

          k = 0.0000 0.0750 0.0000 (  8561 PWs)   bands (ev):

   -36.0930 -36.0908 -36.0908 -36.0293 -14.1858 -14.1857 -14.1857 -14.1622
   -14.1620 -14.1620 -14.1529 -14.1523 -14.1523 -14.1035 -14.1030 -14.1030
    -7.7775  -7.7767  -7.7710  -7.7704  -7.7682  -7.7621  -7.7617  -7.7611
    -7.7579  -7.7576  -7.7576  -7.7469  -7.7465  -7.7465  -7.7302  -7.7302
    -7.7300  -7.7256  -7.7256  -7.7253   3.4306   5.2889   5.3229   5.3272
     8.7994   8.8234   8.8234  10.1675  10.1675  10.2321  10.4370  10.5219
    10.5219  10.7361  10.7374  10.7385  10.7464  10.7464  10.7734  10.7734
    10.7832  10.8950  10.8986  10.9305  11.2186  11.2231  11.2231  12.0730
    12.0777  12.1695  12.1695  12.1837  12.1837  12.5138  12.5459  12.5459
    13.1647  13.2058  13.2058  14.4025  14.4656  14.4738  14.5388  14.6510
    15.3352  15.3364  15.3364  15.3550  15.3933  15.3933  15.6411  15.6421
    15.6628  15.8394  15.8543  15.8543

          k = 0.0000 0.0500 0.0000 (  8565 PWs)   bands (ev):

   -36.0930 -36.0908 -36.0908 -36.0293 -14.1859 -14.1858 -14.1858 -14.1620
   -14.1619 -14.1619 -14.1525 -14.1522 -14.1522 -14.1032 -14.1030 -14.1030
    -7.7775  -7.7772  -7.7711  -7.7709  -7.7685  -7.7621  -7.7619  -7.7614
    -7.7579  -7.7578  -7.7578  -7.7469  -7.7467  -7.7467  -7.7301  -7.7301
    -7.7300  -7.7255  -7.7255  -7.7253   3.4174   5.3018   5.3169   5.3208
     8.8083   8.8194   8.8194  10.1946  10.1946  10.2241  10.4778  10.5192
    10.5192  10.7351  10.7414  10.7426  10.7462  10.7462  10.7587  10.7589
    10.7589  10.8964  10.8998  10.9141  11.2230  11.2250  11.2250  12.1313
[...]
     8.3131   8.3177   8.8244   8.8973   9.6849   9.6887   9.9320   9.9505
    10.1087  10.1131  10.2468  10.2612  10.9191  10.9204  10.9294  10.9315
    10.9380  10.9383  10.9952  10.9972  11.0887  11.0934  11.1043  11.1063
    11.7386  11.7415  12.0592  12.0968  12.1034  12.1066  12.1864  12.1990
    14.1838  14.2062  14.5526  14.5588  14.6752  14.6809  14.6827  14.7121
    15.1044  15.1213  15.2981  15.3257  16.5555  16.5645  16.7261  16.7328
    17.0252  17.1008  17.2559  17.3527

          k = 0.7500 0.4812 0.2687 (  8600 PWs)   bands (ev):

   -36.0918 -36.0915 -36.0912 -36.0292 -14.1893 -14.1825 -14.1817 -14.1779
   -14.1677 -14.1620 -14.1603 -14.1600 -14.1569 -14.1110 -14.1094 -14.1074
    -7.7640  -7.7570  -7.7556  -7.7549  -7.7542  -7.7500  -7.7491  -7.7472
    -7.7459  -7.7455  -7.7445  -7.7414  -7.7390  -7.7365  -7.7358  -7.7353
    -7.7350  -7.7339  -7.7337  -7.7301   4.7526   4.8545   5.4936   5.5003
     8.3035   8.3087   8.7933   8.9018   9.6900   9.6943   9.9226   9.9495
    10.1057  10.1105  10.2365  10.2571  10.9166  10.9181  10.9313  10.9347
    10.9382  10.9388  10.9940  10.9965  11.0845  11.0913  11.1003  11.1023
    11.7487  11.7517  12.0520  12.1050  12.1066  12.1097  12.1854  12.2041
    14.1906  14.2224  14.5486  14.5557  14.6747  14.6889  14.6935  14.7234
    15.1023  15.1191  15.2840  15.3237  16.5729  16.5829  16.7427  16.7530
    16.9989  17.1100  17.2461  17.3923

          k = 0.7500 0.4750 0.2750 (  8594 PWs)   bands (ev):

   -36.0918 -36.0915 -36.0911 -36.0292 -14.1895 -14.1827 -14.1818 -14.1781
   -14.1675 -14.1620 -14.1602 -14.1599 -14.1570 -14.1110 -14.1094 -14.1074
    -7.7638  -7.7569  -7.7554  -7.7547  -7.7540  -7.7499  -7.7490  -7.7472
    -7.7458  -7.7454  -7.7445  -7.7412  -7.7390  -7.7365  -7.7359  -7.7353
    -7.7349  -7.7338  -7.7337  -7.7302   4.7467   4.8817   5.4896   5.4991
     8.2943   8.3010   8.7627   8.9062   9.6947   9.7001   9.9133   9.9488
    10.1029  10.1084  10.2262  10.2527  10.9144  10.9161  10.9333  10.9377
    10.9385  10.9396  10.9929  10.9960  11.0801  11.0893  11.0963  11.0985
    11.7585  11.7618  12.0446  12.1065  12.1099  12.1186  12.1842  12.2094
    14.1975  14.2388  14.5412  14.5505  14.6702  14.7016  14.7086  14.7349
    15.1001  15.1169  15.2697  15.3214  16.5871  16.6003  16.7589  16.7765
    16.9740  17.1190  17.2347  17.4309

          k = 0.7500 0.4687 0.2812 (  8597 PWs)   bands (ev):

   -36.0918 -36.0914 -36.0912 -36.0292 -14.1897 -14.1829 -14.1818 -14.1783
   -14.1673 -14.1621 -14.1602 -14.1598 -14.1570 -14.1109 -14.1094 -14.1075
    -7.7636  -7.7569  -7.7552  -7.7545  -7.7538  -7.7498  -7.7489  -7.7472
    -7.7457  -7.7454  -7.7445  -7.7411  -7.7389  -7.7365  -7.7360  -7.7354
    -7.7347  -7.7337  -7.7337  -7.7303   4.7412   4.9089   5.4844   5.4981
     8.2855   8.2947   8.7326   8.9104   9.6991   9.7061   9.9043   9.9485
    10.1002  10.1070  10.2160  10.2480  10.9126  10.9142  10.9353  10.9382
    10.9397  10.9420  10.9917  10.9959  11.0758  11.0873  11.0924  11.0947
    11.7679  11.7719  12.0371  12.1078  12.1122  12.1277  12.1830  12.2150
    14.2047  14.2553  14.5316  14.5441  14.6652  14.7158  14.7251  14.7466
    15.0979  15.1148  15.2555  15.3186  16.5982  16.6171  16.7746  16.8028
    16.9505  17.1277  17.2219  17.4683

          k = 0.7500 0.4625 0.2875 (  8598 PWs)   bands (ev):

   -36.0918 -36.0914 -36.0912 -36.0292 -14.1898 -14.1830 -14.1819 -14.1785
   -14.1672 -14.1622 -14.1601 -14.1597 -14.1571 -14.1109 -14.1094 -14.1075
    -7.7634  -7.7568  -7.7550  -7.7543  -7.7537  -7.7497  -7.7489  -7.7472
    -7.7457  -7.7454  -7.7445  -7.7410  -7.7389  -7.7364  -7.7361  -7.7354
    -7.7346  -7.7338  -7.7336  -7.7303   4.7359   4.9359   5.4780   5.4971
     8.2772   8.2899   8.7030   8.9144   9.7031   9.7121   9.8955   9.9483
    10.0975  10.1063  10.2060  10.2431  10.9110  10.9124  10.9370  10.9383
    10.9403  10.9456  10.9905  10.9961  11.0713  11.0854  11.0884  11.0912
    11.7769  11.7820  12.0294  12.1088  12.1145  12.1361  12.1818  12.2207
    14.2123  14.2716  14.5207  14.5370  14.6600  14.7306  14.7419  14.7587
    15.0955  15.1129  15.2413  15.3152  16.6068  16.6334  16.7895  16.8314
    16.9287  17.1360  17.2078  17.5043

          k = 0.7500 0.4562 0.2937 (  8595 PWs)   bands (ev):

   -36.0918 -36.0914 -36.0912 -36.0292 -14.1900 -14.1832 -14.1819 -14.1787
   -14.1670 -14.1622 -14.1601 -14.1596 -14.1572 -14.1109 -14.1094 -14.1076
    -7.7632  -7.7568  -7.7549  -7.7542  -7.7535  -7.7496  -7.7488  -7.7472
    -7.7457  -7.7454  -7.7445  -7.7409  -7.7389  -7.7364  -7.7362  -7.7354
    -7.7345  -7.7338  -7.7335  -7.7304   4.7310   4.9627   5.4705   5.4963
     8.2694   8.2865   8.6740   8.9182   9.7069   9.7183   9.8870   9.9484
    10.0949  10.1062  10.1962  10.2379  10.9098  10.9108  10.9371  10.9397
    10.9411  10.9493  10.9894  10.9966  11.0669  11.0833  11.0846  11.0878
    11.7855  11.7921  12.0216  12.1097  12.1169  12.1435  12.1805  12.2267
    14.2201  14.2880  14.5090  14.5297  14.6546  14.7456  14.7581  14.7715
    15.0930  15.1114  15.2275  15.3111  16.6135  16.6492  16.8035  16.8617
    16.9085  17.1440  17.1925  17.5390

          k = 0.7500 0.4500 0.3000 (  8594 PWs)   bands (ev):

   -36.0918 -36.0914 -36.0912 -36.0292 -14.1901 -14.1834 -14.1819 -14.1788
   -14.1669 -14.1623 -14.1601 -14.1595 -14.1572 -14.1109 -14.1094 -14.1076
    -7.7630  -7.7568  -7.7547  -7.7540  -7.7533  -7.7495  -7.7487  -7.7472
    -7.7456  -7.7454  -7.7445  -7.7408  -7.7388  -7.7365  -7.7363  -7.7354
    -7.7345  -7.7338  -7.7334  -7.7305   4.7264   4.9894   5.4619   5.4956
     8.2621   8.2846   8.6457   8.9219   9.7103   9.7245   9.8787   9.9488
    10.0924  10.1068  10.1868  10.2325  10.9088  10.9094  10.9366  10.9411
    10.9424  10.9533  10.9882  10.9974  11.0624  11.0801  11.0818  11.0849
    11.7936  11.8021  12.0138  12.1104  12.1194  12.1501  12.1790  12.2327
    14.2282  14.3041  14.4969  14.5224  14.6489  14.7604  14.7729  14.7854
    15.0902  15.1104  15.2139  15.3063  16.6187  16.6646  16.8164  16.8888
    16.8946  17.1516  17.1761  17.5721

          k = 0.7500 0.4437 0.3062 (  8599 PWs)   bands (ev):

   -36.0918 -36.0914 -36.0912 -36.0292 -14.1903 -14.1835 -14.1820 -14.1790
   -14.1667 -14.1624 -14.1600 -14.1593 -14.1573 -14.1109 -14.1094 -14.1076
    -7.7629  -7.7567  -7.7546  -7.7538  -7.7532  -7.7495  -7.7487  -7.7473
    -7.7456  -7.7454  -7.7446  -7.7407  -7.7388  -7.7366  -7.7363  -7.7354
    -7.7344  -7.7338  -7.7333  -7.7306   4.7222   5.0158   5.4523   5.4949
     8.2553   8.2841   8.6180   8.9253   9.7134   9.7307   9.8707   9.9494
    10.0901  10.1079  10.1777  10.2267  10.9076  10.9086  10.9358  10.9418
    10.9444  10.9573  10.9870  10.9984  11.0579  11.0762  11.0797  11.0822
    11.8012  11.8120  12.0058  12.1109  12.1219  12.1558  12.1774  12.2387
    14.2367  14.3200  14.4844  14.5154  14.6431  14.7745  14.7862  14.8001
    15.0871  15.1102  15.2009  15.3007  16.6228  16.6796  16.8281  16.8732
    16.9262  17.1583  17.1592  17.6034

          k = 0.7500 0.4375 0.3125 (  8596 PWs)   bands (ev):

   -36.0918 -36.0914 -36.0912 -36.0292 -14.1904 -14.1836 -14.1820 -14.1791
   -14.1666 -14.1625 -14.1600 -14.1592 -14.1574 -14.1109 -14.1094 -14.1077
    -7.7627  -7.7567  -7.7545  -7.7537  -7.7530  -7.7494  -7.7486  -7.7473
    -7.7455  -7.7454  -7.7446  -7.7407  -7.7387  -7.7367  -7.7363  -7.7354
    -7.7344  -7.7338  -7.7332  -7.7307   4.7184   5.0420   5.4415   5.4943
     8.2491   8.2851   8.5912   8.9284   9.7163   9.7369   9.8630   9.9501
    10.0879  10.1097  10.1690  10.2208  10.9064  10.9083  10.9347  10.9424
    10.9466  10.9614  10.9858  10.9996  11.0534  11.0723  11.0776  11.0800
    11.8082  11.8218  11.9978  12.1114  12.1245  12.1607  12.1757  12.2445
    14.2455  14.3356  14.4718  14.5087  14.6371  14.7878  14.7988  14.8147
    15.0837  15.1111  15.1884  15.2942  16.6259  16.6941  16.8386  16.8584
    16.9594  17.1408  17.1654  17.6329

          k = 0.7500 0.4312 0.3187 (  8595 PWs)   bands (ev):

   -36.0918 -36.0914 -36.0912 -36.0292 -14.1905 -14.1837 -14.1820 -14.1793
   -14.1664 -14.1627 -14.1600 -14.1591 -14.1574 -14.1108 -14.1094 -14.1077
    -7.7626  -7.7567  -7.7544  -7.7535  -7.7529  -7.7493  -7.7486  -7.7473
    -7.7455  -7.7454  -7.7446  -7.7406  -7.7387  -7.7368  -7.7363  -7.7353
    -7.7344  -7.7337  -7.7331  -7.7308   4.7149   5.0678   5.4297   5.4938
     8.2435   8.2876   8.5651   8.9314   9.7188   9.7431   9.8555   9.9510
    10.0860  10.1121  10.1608  10.2146  10.9053  10.9084  10.9336  10.9430
    10.9488  10.9656  10.9845  11.0010  11.0488  11.0685  11.0754  11.0781
    11.8147  11.8315  11.9898  12.1117  12.1272  12.1649  12.1739  12.2502
    14.2545  14.3508  14.4592  14.5025  14.6309  14.7998  14.8113  14.8284
    15.0799  15.1131  15.1767  15.2870  16.6284  16.7081  16.8435  16.8499
    16.9929  17.1222  17.1716  17.6604

          k = 0.7500 0.4250 0.3250 (  8592 PWs)   bands (ev):

   -36.0918 -36.0914 -36.0912 -36.0292 -14.1906 -14.1838 -14.1820 -14.1794
   -14.1663 -14.1628 -14.1599 -14.1590 -14.1575 -14.1108 -14.1094 -14.1078
    -7.7625  -7.7567  -7.7543  -7.7534  -7.7528  -7.7492  -7.7485  -7.7474
    -7.7455  -7.7454  -7.7447  -7.7405  -7.7386  -7.7369  -7.7364  -7.7353
    -7.7344  -7.7337  -7.7330  -7.7309   4.7117   5.0933   5.4168   5.4932
     8.2384   8.2916   8.5399   8.9340   9.7211   9.7492   9.8483   9.9520
    10.0842  10.1150  10.1532  10.2082  10.9043  10.9087  10.9323  10.9435
    10.9510  10.9699  10.9831  11.0025  11.0442  11.0647  11.0735  11.0765
    11.8207  11.8412  11.9817  12.1120  12.1300  12.1685  12.1720  12.2556
    14.2639  14.3655  14.4465  14.4967  14.6246  14.8107  14.8235  14.8406
    15.0758  15.1164  15.1658  15.2789  16.6304  16.7215  16.8329  16.8579
    17.0264  17.1031  17.1771  17.6856

          k = 0.7500 0.4187 0.3312 (  8591 PWs)   bands (ev):

   -36.0918 -36.0914 -36.0912 -36.0292 -14.1907 -14.1839 -14.1820 -14.1795
   -14.1661 -14.1629 -14.1599 -14.1588 -14.1576 -14.1108 -14.1094 -14.1078
    -7.7624  -7.7567  -7.7542  -7.7533  -7.7527  -7.7491  -7.7485  -7.7474
    -7.7455  -7.7453  -7.7447  -7.7405  -7.7385  -7.7370  -7.7364  -7.7353
    -7.7344  -7.7336  -7.7330  -7.7309   4.7089   5.1184   5.4029   5.4928
     8.2339   8.2970   8.5157   8.9364   9.7232   9.7552   9.8412   9.9531
    10.0825  10.1185  10.1462  10.2017  10.9035  10.9093  10.9308  10.9440
    10.9533  10.9743  10.9817  11.0043  11.0396  11.0610  11.0718  11.0750
    11.8260  11.8507  11.9735  12.1121  12.1327  12.1696  12.1719  12.2605
    14.2735  14.3795  14.4339  14.4916  14.6182  14.8207  14.8352  14.8512
    15.0715  15.1212  15.1559  15.2699  16.6319  16.7341  16.8230  16.8665
    17.0594  17.0839  17.1821  17.7085

          k = 0.7500 0.4125 0.3375 (  8589 PWs)   bands (ev):

   -36.0918 -36.0914 -36.0912 -36.0292 -14.1908 -14.1840 -14.1820 -14.1796
   -14.1660 -14.1630 -14.1599 -14.1587 -14.1576 -14.1108 -14.1094 -14.1078
    -7.7623  -7.7567  -7.7541  -7.7532  -7.7527  -7.7490  -7.7484  -7.7475
    -7.7455  -7.7453  -7.7448  -7.7404  -7.7384  -7.7371  -7.7364  -7.7352
    -7.7344  -7.7335  -7.7329  -7.7310   4.7065   5.1430   5.3879   5.4924
     8.2301   8.3039   8.4923   8.9384   9.7249   9.7612   9.8344   9.9542
    10.0811  10.1224  10.1399  10.1951  10.9027  10.9101  10.9292  10.9444
    10.9556  10.9786  10.9803  11.0061  11.0350  11.0575  11.0703  11.0736
    11.8307  11.8601  11.9653  12.1122  12.1355  12.1675  12.1743  12.2650
    14.2835  14.3925  14.4214  14.4870  14.6119  14.8298  14.8462  14.8599
    15.0673  15.1273  15.1473  15.2602  16.6331  16.7456  16.8146  16.8753
    17.0638  17.0924  17.1865  17.7276

          k = 0.7500 0.4062 0.3437 (  8583 PWs)   bands (ev):

   -36.0918 -36.0913 -36.0912 -36.0292 -14.1909 -14.1841 -14.1820 -14.1797
   -14.1659 -14.1630 -14.1599 -14.1586 -14.1577 -14.1108 -14.1093 -14.1079
    -7.7622  -7.7566  -7.7540  -7.7531  -7.7526  -7.7489  -7.7484  -7.7475
    -7.7455  -7.7453  -7.7448  -7.7404  -7.7383  -7.7372  -7.7364  -7.7352
    -7.7344  -7.7335  -7.7328  -7.7311   4.7045   5.1672   5.3720   5.4921
     8.2268   8.3123   8.4700   8.9402   9.7264   9.7671   9.8278   9.9553
    10.0799  10.1268  10.1346  10.1883  10.9021  10.9111  10.9275  10.9448
    10.9579  10.9785  10.9832  11.0079  11.0304  11.0542  11.0692  11.0724
    11.8347  11.8694  11.9570  12.1123  12.1384  12.1652  12.1763  12.2688
    14.2937  14.4040  14.4095  14.4831  14.6057  14.8381  14.8562  14.8665
    15.0632  15.1338  15.1408  15.2498  16.6340  16.7557  16.8076  16.8848
    17.0443  17.1233  17.1903  17.6237

          k = 0.7500 0.4000 0.3500 (  8590 PWs)   bands (ev):

   -36.0918 -36.0913 -36.0912 -36.0292 -14.1909 -14.1841 -14.1820 -14.1798
   -14.1658 -14.1631 -14.1598 -14.1585 -14.1578 -14.1108 -14.1093 -14.1079
    -7.7621  -7.7566  -7.7540  -7.7530  -7.7525  -7.7488  -7.7484  -7.7475
    -7.7455  -7.7453  -7.7449  -7.7404  -7.7382  -7.7373  -7.7364  -7.7352
    -7.7345  -7.7334  -7.7327  -7.7312   4.7028   5.1908   5.3552   5.4918
     8.2241   8.3221   8.4488   8.9417   9.7276   9.7731   9.8213   9.9563
    10.0789  10.1289  10.1327  10.1816  10.9016  10.9123  10.9258  10.9451
    10.9601  10.9768  10.9877  11.0097  11.0258  11.0512  11.0682  11.0714
    11.8380  11.8786  11.9486  12.1123  12.1412  12.1628  12.1780  12.2721
    14.3042  14.3962  14.4156  14.4799  14.6000  14.8455  14.8648  14.8713
    15.0593  15.1319  15.1452  15.2386  16.6346  16.7643  16.8017  16.8953
    17.0249  17.1521  17.1934  17.5958

          k = 0.7500 0.3937 0.3562 (  8588 PWs)   bands (ev):

   -36.0918 -36.0913 -36.0912 -36.0292 -14.1910 -14.1842 -14.1820 -14.1798
   -14.1658 -14.1632 -14.1598 -14.1584 -14.1579 -14.1108 -14.1093 -14.1079
    -7.7621  -7.7566  -7.7539  -7.7529  -7.7525  -7.7488  -7.7484  -7.7476
    -7.7455  -7.7452  -7.7449  -7.7404  -7.7381  -7.7374  -7.7364  -7.7351
    -7.7345  -7.7334  -7.7327  -7.7312   4.7015   5.2138   5.3374   5.4916
     8.2220   8.3333   8.4287   8.9428   9.7286   9.7789   9.8150   9.9572
    10.0781  10.1258  10.1375  10.1748  10.9012  10.9137  10.9240  10.9453
    10.9624  10.9751  10.9922  11.0113  11.0212  11.0487  11.0676  11.0705
    11.8406  11.8877  11.9402  12.1123  12.1440  12.1604  12.1792  12.2747
    14.3149  14.3841  14.4244  14.4773  14.5950  14.8519  14.8718  14.8742
    15.0560  15.1271  15.1550  15.2270  16.6351  16.7714  16.7969  16.9072
    17.0057  17.1777  17.1958  17.5709

          k = 0.7500 0.3875 0.3625 (  8588 PWs)   bands (ev):

   -36.0918 -36.0913 -36.0912 -36.0292 -14.1910 -14.1842 -14.1820 -14.1799
   -14.1657 -14.1632 -14.1598 -14.1583 -14.1580 -14.1108 -14.1093 -14.1079
    -7.7620  -7.7566  -7.7539  -7.7529  -7.7525  -7.7487  -7.7484  -7.7476
    -7.7455  -7.7452  -7.7450  -7.7403  -7.7380  -7.7375  -7.7364  -7.7351
    -7.7345  -7.7334  -7.7327  -7.7313   4.7005   5.2362   5.3188   5.4915
     8.2205   8.3459   8.4097   8.9436   9.7292   9.7848   9.8089   9.9579
    10.0775  10.1231  10.1430  10.1682  10.9009  10.9152  10.9222  10.9455
    10.9645  10.9732  10.9966  11.0126  11.0169  11.0466  11.0671  11.0698
    11.8424  11.8967  11.9316  12.1123  12.1468  12.1578  12.1801  12.2765
    14.3259  14.3721  14.4312  14.4755  14.5910  14.8571  14.8756  14.8772
    15.0535  15.1235  15.1660  15.2150  16.6355  16.7770  16.7928  16.9207
    16.9870  17.1971  17.1987  17.5506

          k = 0.7500 0.3812 0.3687 (  8591 PWs)   bands (ev):

   -36.0918 -36.0913 -36.0912 -36.0292 -14.1910 -14.1842 -14.1820 -14.1799
   -14.1657 -14.1633 -14.1598 -14.1582 -14.1580 -14.1108 -14.1093 -14.1079
    -7.7620  -7.7566  -7.7539  -7.7528  -7.7525  -7.7487  -7.7484  -7.7476
    -7.7455  -7.7451  -7.7450  -7.7403  -7.7380  -7.7376  -7.7364  -7.7351
    -7.7345  -7.7334  -7.7326  -7.7313   4.7000   5.2579   5.2994   5.4914
     8.2196   8.3597   8.3920   8.9441   9.7296   9.7907   9.8028   9.9583
    10.0772  10.1215  10.1490  10.1616  10.9007  10.9167  10.9204  10.9456
    10.9666  10.9713  11.0006  11.0123  11.0140  11.0453  11.0669  11.0694
    11.8436  11.9055  11.9230  12.1123  12.1496  12.1552  12.1806  12.2777
    14.3371  14.3603  14.4355  14.4744  14.5884  14.8606  14.8760  14.8804
    15.0519  15.1213  15.1776  15.2028  16.6356  16.7815  16.7892  16.9355
    16.9689  17.1985  17.2120  17.5372

          k = 0.7500 0.3750 0.3750 (  8593 PWs)   bands (ev):

   -36.0918 -36.0913 -36.0912 -36.0292 -14.1911 -14.1842 -14.1820 -14.1799
   -14.1657 -14.1633 -14.1598 -14.1582 -14.1581 -14.1108 -14.1093 -14.1079
    -7.7620  -7.7566  -7.7539  -7.7528  -7.7525  -7.7487  -7.7484  -7.7476
    -7.7455  -7.7451  -7.7451  -7.7403  -7.7379  -7.7377  -7.7364  -7.7351
    -7.7345  -7.7334  -7.7326  -7.7313   4.6998   5.2770   5.2811   5.4913
     8.2193   8.3726   8.3778   8.9443   9.7298   9.7956   9.7978   9.9584
    10.0771  10.1209  10.1547  10.1556  10.9006  10.9181  10.9190  10.9457
    10.9680  10.9700  11.0028  11.0102  11.0141  11.0449  11.0668  11.0693
    11.8439  11.9138  11.9148  12.1123  12.1517  12.1531  12.1808  12.2780
    14.3473  14.3499  14.4370  14.4740  14.5875  14.8620  14.8760  14.8815
    15.0513  15.1206  15.1874  15.1928  16.6357  16.7845  16.7866  16.9514
    16.9519  17.1989  17.2168  17.5326

     Writing all to output data dir ./work/pwscf.save/

     init_run     :      0.70s CPU      0.77s WALL (       1 calls)
     electrons    :    139.92s CPU    145.02s WALL (       1 calls)

     Called by init_run:
     wfcinit      :      0.00s CPU      0.00s WALL (       1 calls)
     wfcinit:atom :      0.09s CPU      0.10s WALL (     101 calls)
     wfcinit:wfcr :      9.77s CPU     10.21s WALL (     101 calls)
     potinit      :      0.28s CPU      0.33s WALL (       1 calls)
     hinit0       :      0.28s CPU      0.28s WALL (       1 calls)

     Called by electrons:
     c_bands      :    139.92s CPU    145.01s WALL (       1 calls)
     v_of_rho     :      0.01s CPU      0.01s WALL (       1 calls)
     v_h          :      0.00s CPU      0.00s WALL (       1 calls)
     v_xc         :      0.01s CPU      0.01s WALL (       1 calls)
     newd         :      0.07s CPU      0.08s WALL (       1 calls)
     PAW_pot      :      0.13s CPU      0.15s WALL (       1 calls)

     Called by c_bands:
     init_us_2    :      0.08s CPU      0.09s WALL (     101 calls)
     init_us_2:cp :      0.08s CPU      0.09s WALL (     101 calls)
     cegterg      :    128.74s CPU    132.83s WALL (     171 calls)

     Called by sum_band:

     Called by *egterg:
     cdiaghg      :     23.29s CPU     23.47s WALL (    2575 calls)
     cegterg:over :     14.63s CPU     14.91s WALL (    2474 calls)
     cegterg:upda :      4.60s CPU      4.61s WALL (    2474 calls)
     cegterg:last :     11.29s CPU     11.30s WALL (    1171 calls)
     h_psi        :     67.31s CPU     71.24s WALL (    2746 calls)
     s_psi        :      6.00s CPU      6.06s WALL (    2746 calls)
     g_psi        :      0.35s CPU      0.35s WALL (    2474 calls)

     Called by h_psi:
     h_psi:calbec :      9.20s CPU      9.72s WALL (    2746 calls)
     vloc_psi     :     51.57s CPU     54.86s WALL (    2746 calls)
     add_vuspsi   :      6.25s CPU      6.38s WALL (    2746 calls)

     General routines
     calbec       :      9.19s CPU      9.71s WALL (    2746 calls)
     fft          :      0.17s CPU      0.17s WALL (      13 calls)
     ffts         :      0.13s CPU      0.13s WALL (       1 calls)
     fftw         :     48.30s CPU     51.38s WALL (  243120 calls)
     interpolate  :      0.13s CPU      0.13s WALL (       1 calls)

     Parallel routines

     PAW routines
     PAW_pot      :      0.13s CPU      0.15s WALL (       1 calls)

     PWSCF        :   2m22.15s CPU   2m39.22s WALL


   This run was terminated on:  17:33:44  22Sep2023            

=------------------------------------------------------------------------------=
   JOB DONE.
=------------------------------------------------------------------------------=
