
     Program BANDS v.7.1 starts on 22Sep2023 at 18:54:26 

     This program is part of the open-source Quantum ESPRESSO suite
     for quantum simulation of materials; please cite
         "P. Giannozzi et al., J. Phys.:Condens. Matter 21 395502 (2009);
         "P. Giannozzi et al., J. Phys.:Condens. Matter 29 465901 (2017);
         "P. Giannozzi et al., J. Chem. Phys. 152 154105 (2020);
          URL http://www.quantum-espresso.org", 
     in publications or presentations arising from this work. More details at
     http://www.quantum-espresso.org/quote

     Parallel version (MPI & OpenMP), running on      10 processor cores
     Number of MPI processes:                10
     Threads/MPI process:                     1

     MPI processes distributed on     1 nodes
     R & G space division:  proc/nbgrp/npool/nimage =      10
     11649 MiB available memory on the printing compute node when the environment starts


     Reading xml data from directory:

     ./work/pwscf.save/
     Message from routine volume:
     axis vectors are left-handed
     file Ga.pbe-dn-kjpaw_psl.1.0.0.UPF: wavefunction(s)  4S renormalized

     IMPORTANT: XC functional enforced from input :
     Exchange-correlation= PBE
                           (   1   4   3   4   0   0   0)
     Any further DFT definition will be discarded
     Please, verify this is what you really want


     Parallelization info
     --------------------
     sticks:   dense  smooth     PW     G-vecs:    dense   smooth      PW
     Min          98      96     28                 2053     2010     313
     Max         102      98     29                 2054     2011     316
     Sum        1003     967    283                20539    20107    3143

     Using Slab Decomposition

     Reading collected, re-writing distributed wavefunctions
     high-symmetry point:  0.0000 1.0000 0.5000   x coordinate   0.0000
     high-symmetry point:  0.5000-0.5000 0.5000   x coordinate   1.5811
     high-symmetry point:  0.0000 0.0000 0.0000   x coordinate   2.4472
     high-symmetry point:  0.0000 0.0000 1.0000   x coordinate   3.4472
     high-symmetry point:  1.0000 0.5000 0.0000   x coordinate   4.9472
     high-symmetry point:  0.7500 0.7500 0.0000   x coordinate   5.3007

     Plottable bands (eV) written to file bands.out.gnu
     Bands written to file bands.out

 **************************************************************************

                    xk=(   0.00000,   1.00000,   0.50000  )

     point group S_4 (-4)   
     there are  4 classes
     the character table:

       E     S4^3  C2    S4   
A      1.00  1.00  1.00  1.00
B      1.00 -1.00  1.00 -1.00
E      1.00  0.00 -1.00  0.00
E*     1.00  0.00 -1.00  0.00
     imaginary part
A      0.00  0.00  0.00  0.00
B      0.00  0.00  0.00  0.00
E      0.00  1.00  0.00 -1.00
E*     0.00 -1.00  0.00  1.00

     the symmetry operations in each class and the name of the first element:

     E        1
                                                                 
     S4^3     4
                                                                 
     C2       2
                                                                 
     S4       3
                                                                 

     Band symmetry, S_4 (-4)    point group:

     e(  1 -  1) =     -8.59393  eV     1   --> E*   W_2       
     e(  2 -  2) =     -8.48423  eV     1   --> E    W_4       
     e(  3 -  3) =     -8.47190  eV     1   --> B    W_3       
     e(  4 -  4) =     -8.45207  eV     1   --> B    W_3       
     e(  5 -  5) =     -8.43868  eV     1   --> A    W_1       
     e(  6 -  6) =     -3.92671  eV     1   --> E*   W_2       
     e(  7 -  7) =     -0.30258  eV     1   --> A    W_1       
     e(  8 -  8) =      2.81541  eV     1   --> B    W_3       
     e(  9 -  9) =      3.00106  eV     1   --> E    W_4       
     e( 10 - 10) =     10.50777  eV     1   --> A    W_1       
     e( 11 - 11) =     10.81797  eV     1   --> E    W_4       
     e( 12 - 12) =     11.39737  eV     1   --> E*   W_2       
     e( 13 - 13) =     12.15095  eV     1   --> B    W_3       

 **************************************************************************

 **************************************************************************

                    xk=(   0.02500,   0.92500,   0.50000  )

     point group C_1 (1)    
     there are  1 classes
     the character table:

       E    
A      1.00

     the symmetry operations in each class and the name of the first element:

     E        1
                                                                 

     Band symmetry, C_1 (1)     point group:

     e(  1 -  1) =     -8.59331  eV     1   --> A              
     e(  2 -  2) =     -8.48455  eV     1   --> A              
     e(  3 -  3) =     -8.47243  eV     1   --> A              
     e(  4 -  4) =     -8.45178  eV     1   --> A              
     e(  5 -  5) =     -8.43878  eV     1   --> A              
     e(  6 -  6) =     -3.95590  eV     1   --> A              
     e(  7 -  7) =     -0.27726  eV     1   --> A              
     e(  8 -  8) =      2.69574  eV     1   --> A              
     e(  9 -  9) =      3.19663  eV     1   --> A              
     e( 10 - 10) =     10.26157  eV     1   --> A              
     e( 11 - 11) =     10.92441  eV     1   --> A              
     e( 12 - 12) =     11.38617  eV     1   --> A              
     e( 13 - 13) =     12.39639  eV     1   --> A              

 **************************************************************************

 **************************************************************************

                    xk=(   0.05000,   0.85000,   0.50000  )

     Band symmetry, C_1 (1)     point group:

     e(  1 -  1) =     -8.59155  eV     1   --> A              
     e(  2 -  2) =     -8.48546  eV     1   --> A              
     e(  3 -  3) =     -8.47409  eV     1   --> A              
     e(  4 -  4) =     -8.45092  eV     1   --> A              
     e(  5 -  5) =     -8.43907  eV     1   --> A              
     e(  6 -  6) =     -4.03862  eV     1   --> A              
     e(  7 -  7) =     -0.20756  eV     1   --> A              
     e(  8 -  8) =      2.60096  eV     1   --> A              
     e(  9 -  9) =      3.51625  eV     1   --> A              
     e( 10 - 10) =      9.86625  eV     1   --> A              
     e( 11 - 11) =     10.90502  eV     1   --> A              
     e( 12 - 12) =     11.54755  eV     1   --> A              
     e( 13 - 13) =     12.92274  eV     1   --> A              

 **************************************************************************

 **************************************************************************

                    xk=(   0.07500,   0.77500,   0.50000  )

     Band symmetry, C_1 (1)     point group:

     e(  1 -  1) =     -8.58877  eV     1   --> A              
     e(  2 -  2) =     -8.48672  eV     1   --> A              
     e(  3 -  3) =     -8.47686  eV     1   --> A              
     e(  4 -  4) =     -8.44946  eV     1   --> A              
     e(  5 -  5) =     -8.43951  eV     1   --> A              
     e(  6 -  6) =     -4.16216  eV     1   --> A              
     e(  7 -  7) =     -0.10849  eV     1   --> A              
     e(  8 -  8) =      2.60422  eV     1   --> A              
     e(  9 -  9) =      3.87722  eV     1   --> A              
     e( 10 - 10) =      9.46853  eV     1   --> A              
     e( 11 - 11) =     10.83550  eV     1   --> A              
     e( 12 - 12) =     11.81003  eV     1   --> A              
     e( 13 - 13) =     13.52980  eV     1   --> A              

 **************************************************************************

 **************************************************************************

                    xk=(   0.10000,   0.70000,   0.50000  )

     Band symmetry, C_1 (1)     point group:

     e(  1 -  1) =     -8.58525  eV     1   --> A              
     e(  2 -  2) =     -8.48812  eV     1   --> A              
     e(  3 -  3) =     -8.48050  eV     1   --> A              
     e(  4 -  4) =     -8.44756  eV     1   --> A              
     e(  5 -  5) =     -8.44010  eV     1   --> A              
     e(  6 -  6) =     -4.31088  eV     1   --> A              
     e(  7 -  7) =      0.00478  eV     1   --> A              
     e(  8 -  8) =      2.71416  eV     1   --> A              
     e(  9 -  9) =      4.24822  eV     1   --> A              
     e( 10 - 10) =      9.10949  eV     1   --> A              
     e( 11 - 11) =     10.80000  eV     1   --> A              
     e( 12 - 12) =     12.04947  eV     1   --> A              
     e( 13 - 13) =     13.60926  eV     1   --> A              

 **************************************************************************

 **************************************************************************

                    xk=(   0.12500,   0.62500,   0.50000  )

     Band symmetry, C_1 (1)     point group:

     e(  1 -  1) =     -8.58134  eV     1   --> A              
     e(  2 -  2) =     -8.48948  eV     1   --> A              
     e(  3 -  3) =     -8.48450  eV     1   --> A              
     e(  4 -  4) =     -8.44545  eV     1   --> A              
     e(  5 -  5) =     -8.44082  eV     1   --> A              
     e(  6 -  6) =     -4.46993  eV     1   --> A              
     e(  7 -  7) =      0.12409  eV     1   --> A              
     e(  8 -  8) =      2.92517  eV     1   --> A              
     e(  9 -  9) =      4.59370  eV     1   --> A              
     e( 10 - 10) =      8.80859  eV     1   --> A              
     e( 11 - 11) =     10.80612  eV     1   --> A              
     e( 12 - 12) =     12.05924  eV     1   --> A              
     e( 13 - 13) =     13.11850  eV     1   --> A              

 **************************************************************************

 **************************************************************************

                    xk=(   0.15000,   0.55000,   0.50000  )

     Band symmetry, C_1 (1)     point group:

     e(  1 -  1) =     -8.57742  eV     1   --> A              
     e(  2 -  2) =     -8.49066  eV     1   --> A              
     e(  3 -  3) =     -8.48824  eV     1   --> A              
     e(  4 -  4) =     -8.44346  eV     1   --> A              
     e(  5 -  5) =     -8.44159  eV     1   --> A              
     e(  6 -  6) =     -4.62682  eV     1   --> A              
     e(  7 -  7) =      0.24980  eV     1   --> A              
     e(  8 -  8) =      3.21952  eV     1   --> A              
     e(  9 -  9) =      4.87140  eV     1   --> A              
     e( 10 - 10) =      8.57176  eV     1   --> A              
     e( 11 - 11) =     10.83250  eV     1   --> A              
     e( 12 - 12) =     11.64926  eV     1   --> A              
     e( 13 - 13) =     13.04664  eV     1   --> A              

 **************************************************************************

 **************************************************************************

                    xk=(   0.17500,   0.47500,   0.50000  )

     Band symmetry, C_1 (1)     point group:

     e(  1 -  1) =     -8.57390  eV     1   --> A              
     e(  2 -  2) =     -8.49187  eV     1   --> A              
     e(  3 -  3) =     -8.49091  eV     1   --> A              
     e(  4 -  4) =     -8.44314  eV     1   --> A              
     e(  5 -  5) =     -8.44109  eV     1   --> A              
     e(  6 -  6) =     -4.77180  eV     1   --> A              
     e(  7 -  7) =      0.38676  eV     1   --> A              
     e(  8 -  8) =      3.56948  eV     1   --> A              
     e(  9 -  9) =      5.03780  eV     1   --> A              
     e( 10 - 10) =      8.38974  eV     1   --> A              
     e( 11 - 11) =     10.76322  eV     1   --> A              
     e( 12 - 12) =     11.30277  eV     1   --> A              
     e( 13 - 13) =     13.02950  eV     1   --> A              

 **************************************************************************

 **************************************************************************

                    xk=(   0.20000,   0.40000,   0.50000  )

     Band symmetry, C_1 (1)     point group:

     e(  1 -  1) =     -8.57103  eV     1   --> A              
     e(  2 -  2) =     -8.49347  eV     1   --> A              
     e(  3 -  3) =     -8.49176  eV     1   --> A              
     e(  4 -  4) =     -8.44421  eV     1   --> A              
     e(  5 -  5) =     -8.43972  eV     1   --> A              
     e(  6 -  6) =     -4.89748  eV     1   --> A              
     e(  7 -  7) =      0.53955  eV     1   --> A              
     e(  8 -  8) =      3.93810  eV     1   --> A              
     e(  9 -  9) =      5.06095  eV     1   --> A              
     e( 10 - 10) =      8.24966  eV     1   --> A              
     e( 11 - 11) =     10.52102  eV     1   --> A              
     e( 12 - 12) =     11.31318  eV     1   --> A              
     e( 13 - 13) =     12.84639  eV     1   --> A              

 **************************************************************************

 **************************************************************************

                    xk=(   0.22500,   0.32500,   0.50000  )

     Band symmetry, C_1 (1)     point group:

     e(  1 -  1) =     -8.56894  eV     1   --> A              
     e(  2 -  2) =     -8.49427  eV     1   --> A              
     e(  3 -  3) =     -8.49196  eV     1   --> A              
     e(  4 -  4) =     -8.44542  eV     1   --> A              
     e(  5 -  5) =     -8.43878  eV     1   --> A              
     e(  6 -  6) =     -4.99843  eV     1   --> A              
     e(  7 -  7) =      0.70911  eV     1   --> A              
     e(  8 -  8) =      4.27424  eV     1   --> A              
     e(  9 -  9) =      4.93776  eV     1   --> A              
     e( 10 - 10) =      8.17511  eV     1   --> A              
     e( 11 - 11) =     10.33932  eV     1   --> A              
     e( 12 - 12) =     11.45465  eV     1   --> A              
     e( 13 - 13) =     12.54868  eV     1   --> A              

 **************************************************************************

 **************************************************************************

                    xk=(   0.25000,   0.25000,   0.50000  )

     point group C_s (m)    
     there are  2 classes
     the character table:

       E     s    
A'     1.00  1.00
A''    1.00 -1.00

     the symmetry operations in each class and the name of the first element:

     E        1
                                                                 
     s        2
                                                                 

     Band symmetry, C_s (m)     point group:

     e(  1 -  1) =     -8.56757  eV     1   --> A'             
     e(  2 -  2) =     -8.49429  eV     1   --> A'             
     e(  3 -  3) =     -8.49179  eV     1   --> A''            
     e(  4 -  4) =     -8.44655  eV     1   --> A'             
     e(  5 -  5) =     -8.43837  eV     1   --> A''            
     e(  6 -  6) =     -5.07092  eV     1   --> A'             
     e(  7 -  7) =      0.88993  eV     1   --> A'             
     e(  8 -  8) =      4.44437  eV     1   --> A'             
     e(  9 -  9) =      4.77755  eV     1   --> A''            
     e( 10 - 10) =      8.23131  eV     1   --> A'             
     e( 11 - 11) =     10.23265  eV     1   --> A'             
     e( 12 - 12) =     11.61306  eV     1   --> A''            
     e( 13 - 13) =     12.23581  eV     1   --> A'             

 **************************************************************************

 **************************************************************************

                    xk=(   0.27500,   0.17500,   0.50000  )

     point group C_1 (1)    
     there are  1 classes
     the character table:

       E    
A      1.00

     the symmetry operations in each class and the name of the first element:

     E        1
                                                                 

     Band symmetry, C_1 (1)     point group:

     e(  1 -  1) =     -8.56678  eV     1   --> A              
     e(  2 -  2) =     -8.49392  eV     1   --> A              
     e(  3 -  3) =     -8.49137  eV     1   --> A              
     e(  4 -  4) =     -8.44744  eV     1   --> A              
     e(  5 -  5) =     -8.43841  eV     1   --> A              
     e(  6 -  6) =     -5.11270  eV     1   --> A              
     e(  7 -  7) =      1.06602  eV     1   --> A              
     e(  8 -  8) =      4.19474  eV     1   --> A              
     e(  9 -  9) =      4.86430  eV     1   --> A              
     e( 10 - 10) =      8.45383  eV     1   --> A              
     e( 11 - 11) =     10.13503  eV     1   --> A              
     e( 12 - 12) =     11.67748  eV     1   --> A              
     e( 13 - 13) =     12.04501  eV     1   --> A              

 **************************************************************************

 **************************************************************************

                    xk=(   0.30000,   0.10000,   0.50000  )

     Band symmetry, C_1 (1)     point group:

     e(  1 -  1) =     -8.56652  eV     1   --> A              
     e(  2 -  2) =     -8.49353  eV     1   --> A              
     e(  3 -  3) =     -8.49089  eV     1   --> A              
     e(  4 -  4) =     -8.44793  eV     1   --> A              
     e(  5 -  5) =     -8.43876  eV     1   --> A              
     e(  6 -  6) =     -5.12304  eV     1   --> A              
     e(  7 -  7) =      1.20262  eV     1   --> A              
     e(  8 -  8) =      3.84606  eV     1   --> A              
     e(  9 -  9) =      4.96847  eV     1   --> A              
     e( 10 - 10) =      8.78338  eV     1   --> A              
     e( 11 - 11) =     10.03701  eV     1   --> A              
     e( 12 - 12) =     11.53328  eV     1   --> A              
     e( 13 - 13) =     12.09673  eV     1   --> A              

 **************************************************************************

 **************************************************************************

                    xk=(   0.32500,   0.02500,   0.50000  )

     Band symmetry, C_1 (1)     point group:

     e(  1 -  1) =     -8.56680  eV     1   --> A              
     e(  2 -  2) =     -8.49328  eV     1   --> A              
     e(  3 -  3) =     -8.49060  eV     1   --> A              
     e(  4 -  4) =     -8.44786  eV     1   --> A              
     e(  5 -  5) =     -8.43919  eV     1   --> A              
     e(  6 -  6) =     -5.10281  eV     1   --> A              
     e(  7 -  7) =      1.23944  eV     1   --> A              
     e(  8 -  8) =      3.59189  eV     1   --> A              
     e(  9 -  9) =      5.02584  eV     1   --> A              
     e( 10 - 10) =      9.01208  eV     1   --> A              
     e( 11 - 11) =     10.05647  eV     1   --> A              
     e( 12 - 12) =     11.41430  eV     1   --> A              
     e( 13 - 13) =     12.14098  eV     1   --> A              

 **************************************************************************

 **************************************************************************

                    xk=(   0.35000,  -0.05000,   0.50000  )

     Band symmetry, C_1 (1)     point group:

     e(  1 -  1) =     -8.56768  eV     1   --> A              
     e(  2 -  2) =     -8.49322  eV     1   --> A              
     e(  3 -  3) =     -8.49066  eV     1   --> A              
     e(  4 -  4) =     -8.44717  eV     1   --> A              
     e(  5 -  5) =     -8.43955  eV     1   --> A              
     e(  6 -  6) =     -5.05472  eV     1   --> A              
     e(  7 -  7) =      1.11975  eV     1   --> A              
     e(  8 -  8) =      3.53035  eV     1   --> A              
     e(  9 -  9) =      5.05160  eV     1   --> A              
     e( 10 - 10) =      8.92233  eV     1   --> A              
     e( 11 - 11) =     10.27183  eV     1   --> A              
     e( 12 - 12) =     11.46600  eV     1   --> A              
     e( 13 - 13) =     12.08243  eV     1   --> A              

 **************************************************************************

 **************************************************************************

                    xk=(   0.37500,  -0.12500,   0.50000  )

     Band symmetry, C_1 (1)     point group:

     e(  1 -  1) =     -8.56914  eV     1   --> A              
     e(  2 -  2) =     -8.49330  eV     1   --> A              
     e(  3 -  3) =     -8.49108  eV     1   --> A              
     e(  4 -  4) =     -8.44590  eV     1   --> A              
     e(  5 -  5) =     -8.43972  eV     1   --> A              
     e(  6 -  6) =     -4.98372  eV     1   --> A              
     e(  7 -  7) =      0.86054  eV     1   --> A              
     e(  8 -  8) =      3.66721  eV     1   --> A              
     e(  9 -  9) =      5.06036  eV     1   --> A              
     e( 10 - 10) =      8.62768  eV     1   --> A              
     e( 11 - 11) =     10.44066  eV     1   --> A              
     e( 12 - 12) =     11.51855  eV     1   --> A              
     e( 13 - 13) =     12.23846  eV     1   --> A              

 **************************************************************************

 **************************************************************************

                    xk=(   0.40000,  -0.20000,   0.50000  )

     Band symmetry, C_1 (1)     point group:

     e(  1 -  1) =     -8.57103  eV     1   --> A              
     e(  2 -  2) =     -8.49347  eV     1   --> A              
     e(  3 -  3) =     -8.49176  eV     1   --> A              
     e(  4 -  4) =     -8.44421  eV     1   --> A              
     e(  5 -  5) =     -8.43972  eV     1   --> A              
     e(  6 -  6) =     -4.89748  eV     1   --> A              
     e(  7 -  7) =      0.53955  eV     1   --> A              
     e(  8 -  8) =      3.93810  eV     1   --> A              
     e(  9 -  9) =      5.06095  eV     1   --> A              
     e( 10 - 10) =      8.24965  eV     1   --> A              
     e( 11 - 11) =     10.52101  eV     1   --> A              
     e( 12 - 12) =     11.31317  eV     1   --> A              
     e( 13 - 13) =     12.84639  eV     1   --> A              

 **************************************************************************

 **************************************************************************

                    xk=(   0.42500,  -0.27500,   0.50000  )

     Band symmetry, C_1 (1)     point group:

     e(  1 -  1) =     -8.57307  eV     1   --> A              
     e(  2 -  2) =     -8.49365  eV     1   --> A              
     e(  3 -  3) =     -8.49254  eV     1   --> A              
     e(  4 -  4) =     -8.44241  eV     1   --> A              
     e(  5 -  5) =     -8.43962  eV     1   --> A              
     e(  6 -  6) =     -4.80676  eV     1   --> A              
     e(  7 -  7) =      0.22745  eV     1   --> A              
     e(  8 -  8) =      4.27780  eV     1   --> A              
     e(  9 -  9) =      5.05828  eV     1   --> A              
     e( 10 - 10) =      7.83996  eV     1   --> A              
     e( 11 - 11) =     10.58576  eV     1   --> A              
     e( 12 - 12) =     11.07812  eV     1   --> A              
     e( 13 - 13) =     13.51779  eV     1   --> A              

 **************************************************************************

 **************************************************************************

                    xk=(   0.45000,  -0.35000,   0.50000  )

     Band symmetry, C_1 (1)     point group:

     e(  1 -  1) =     -8.57489  eV     1   --> A              
     e(  2 -  2) =     -8.49378  eV     1   --> A              
     e(  3 -  3) =     -8.49324  eV     1   --> A              
     e(  4 -  4) =     -8.44081  eV     1   --> A              
     e(  5 -  5) =     -8.43948  eV     1   --> A              
     e(  6 -  6) =     -4.72528  eV     1   --> A              
     e(  7 -  7) =     -0.02818  eV     1   --> A              
     e(  8 -  8) =      4.63106  eV     1   --> A              
     e(  9 -  9) =      5.05496  eV     1   --> A              
     e( 10 - 10) =      7.44093  eV     1   --> A              
     e( 11 - 11) =     10.65500  eV     1   --> A              
     e( 12 - 12) =     10.89246  eV     1   --> A              
     e( 13 - 13) =     13.89509  eV     1   --> A              

 **************************************************************************

 **************************************************************************

                    xk=(   0.47500,  -0.42500,   0.50000  )

     Band symmetry, C_1 (1)     point group:

     e(  1 -  1) =     -8.57614  eV     1   --> A              
     e(  2 -  2) =     -8.49387  eV     1   --> A              
     e(  3 -  3) =     -8.49372  eV     1   --> A              
     e(  4 -  4) =     -8.43972  eV     1   --> A              
     e(  5 -  5) =     -8.43937  eV     1   --> A              
     e(  6 -  6) =     -4.66800  eV     1   --> A              
     e(  7 -  7) =     -0.19523  eV     1   --> A              
     e(  8 -  8) =      4.92682  eV     1   --> A              
     e(  9 -  9) =      5.05247  eV     1   --> A              
     e( 10 - 10) =      7.11844  eV     1   --> A              
     e( 11 - 11) =     10.71420  eV     1   --> A              
     e( 12 - 12) =     10.77706  eV     1   --> A              
     e( 13 - 13) =     13.90458  eV     1   --> A              

 **************************************************************************

 **************************************************************************

                    xk=(   0.50000,  -0.50000,   0.50000  )

     point group C_3v (3m)  
     there are  3 classes
     the character table:

       E     2C3   3s_v 
A_1    1.00  1.00  1.00
A_2    1.00  1.00 -1.00
E      2.00 -1.00  0.00

     the symmetry operations in each class and the name of the first element:

     E        1
                                                                 
     2C3      2    3
                                                                 
     3s_v     4    5    6
                                                                 

     Band symmetry, C_3v (3m)   point group:

     e(  1 -  1) =     -8.57659  eV     1   --> A_1  L_1       
     e(  2 -  3) =     -8.49389  eV     2   --> E    L_3       
     e(  4 -  5) =     -8.43933  eV     2   --> E    L_3       
     e(  6 -  6) =     -4.64726  eV     1   --> A_1  L_1       
     e(  7 -  7) =     -0.25334  eV     1   --> A_1  L_1       
     e(  8 -  9) =      5.05152  eV     2   --> E    L_3       
     e( 10 - 10) =      6.98492  eV     1   --> A_1  L_1       
     e( 11 - 12) =     10.73811  eV     2   --> E    L_3       
     e( 13 - 13) =     13.86716  eV     1   --> A_1  L_1       

 **************************************************************************

 **************************************************************************

                    xk=(   0.47500,  -0.47500,   0.47500  )

     Band symmetry, C_3v (3m)   point group:

     e(  1 -  1) =     -8.57623  eV     1   --> A_1  L_1       
     e(  2 -  3) =     -8.49396  eV     2   --> E    L_3       
     e(  4 -  5) =     -8.43939  eV     2   --> E    L_3       
     e(  6 -  6) =     -4.66362  eV     1   --> A_1  L_1       
     e(  7 -  7) =     -0.22308  eV     1   --> A_1  L_1       
     e(  8 -  9) =      5.05623  eV     2   --> E    L_3       
     e( 10 - 10) =      6.98983  eV     1   --> A_1  L_1       
     e( 11 - 12) =     10.74049  eV     2   --> E    L_3       
     e( 13 - 13) =     13.86606  eV     1   --> A_1  L_1       

 **************************************************************************

 **************************************************************************

                    xk=(   0.45000,  -0.45000,   0.45000  )

     Band symmetry, C_3v (3m)   point group:

     e(  1 -  1) =     -8.57515  eV     1   --> A_1  L_1       
     e(  2 -  3) =     -8.49416  eV     2   --> E    L_3       
     e(  4 -  5) =     -8.43957  eV     2   --> E    L_3       
     e(  6 -  6) =     -4.71120  eV     1   --> A_1  L_1       
     e(  7 -  7) =     -0.13385  eV     1   --> A_1  L_1       
     e(  8 -  9) =      5.07027  eV     2   --> E    L_3       
     e( 10 - 10) =      7.00460  eV     1   --> A_1  L_1       
     e( 11 - 12) =     10.74717  eV     2   --> E    L_3       
     e( 13 - 13) =     13.85949  eV     1   --> A_1  L_1       

 **************************************************************************

 **************************************************************************

                    xk=(   0.42500,  -0.42500,   0.42500  )

     Band symmetry, C_3v (3m)   point group:

     e(  1 -  1) =     -8.57337  eV     1   --> A_1  L_1       
     e(  2 -  3) =     -8.49449  eV     2   --> E    L_3       
     e(  4 -  5) =     -8.43986  eV     2   --> E    L_3       
     e(  6 -  6) =     -4.78595  eV     1   --> A_1  L_1       
     e(  7 -  7) =      0.01024  eV     1   --> A_1  L_1       
     e(  8 -  9) =      5.09356  eV     2   --> E    L_3       
     e( 10 - 10) =      7.02909  eV     1   --> A_1  L_1       
     e( 11 - 12) =     10.75702  eV     2   --> E    L_3       
     e( 13 - 13) =     13.83470  eV     1   --> A_1  L_1       

 **************************************************************************

 **************************************************************************

                    xk=(   0.40000,  -0.40000,   0.40000  )

     Band symmetry, C_3v (3m)   point group:

     e(  1 -  1) =     -8.57094  eV     1   --> A_1  L_1       
     e(  2 -  3) =     -8.49497  eV     2   --> E    L_3       
     e(  4 -  5) =     -8.44023  eV     2   --> E    L_3       
     e(  6 -  6) =     -4.88236  eV     1   --> A_1  L_1       
     e(  7 -  7) =      0.20340  eV     1   --> A_1  L_1       
     e(  8 -  9) =      5.12592  eV     2   --> E    L_3       
     e( 10 - 10) =      7.06289  eV     1   --> A_1  L_1       
     e( 11 - 12) =     10.76813  eV     2   --> E    L_3       
     e( 13 - 13) =     13.76448  eV     1   --> A_1  L_1       

 **************************************************************************

 **************************************************************************

                    xk=(   0.37500,  -0.37500,   0.37500  )

     Band symmetry, C_3v (3m)   point group:

     e(  1 -  1) =     -8.56788  eV     1   --> A_1  L_1       
     e(  2 -  3) =     -8.49559  eV     2   --> E    L_3       
     e(  4 -  5) =     -8.44065  eV     2   --> E    L_3       
     e(  6 -  6) =     -4.99439  eV     1   --> A_1  L_1       
     e(  7 -  7) =      0.43937  eV     1   --> A_1  L_1       
     e(  8 -  9) =      5.16708  eV     2   --> E    L_3       
     e( 10 - 10) =      7.10562  eV     1   --> A_1  L_1       
     e( 11 - 12) =     10.77768  eV     2   --> E    L_3       
     e( 13 - 13) =     13.60997  eV     1   --> A_1  L_1       

 **************************************************************************

 **************************************************************************

                    xk=(   0.35000,  -0.35000,   0.35000  )

     Band symmetry, C_3v (3m)   point group:

     e(  1 -  1) =     -8.56425  eV     1   --> A_1  L_1       
     e(  2 -  3) =     -8.49636  eV     2   --> E    L_3       
     e(  4 -  5) =     -8.44111  eV     2   --> E    L_3       
     e(  6 -  6) =     -5.11640  eV     1   --> A_1  L_1       
     e(  7 -  7) =      0.71211  eV     1   --> A_1  L_1       
     e(  8 -  9) =      5.21661  eV     2   --> E    L_3       
     e( 10 - 10) =      7.15650  eV     1   --> A_1  L_1       
     e( 11 - 12) =     10.78218  eV     2   --> E    L_3       
     e( 13 - 13) =     13.35137  eV     1   --> A_1  L_1       

 **************************************************************************

 **************************************************************************

                    xk=(   0.32500,  -0.32500,   0.32500  )

     Band symmetry, C_3v (3m)   point group:

     e(  1 -  1) =     -8.56013  eV     1   --> A_1  L_1       
     e(  2 -  3) =     -8.49728  eV     2   --> E    L_3       
     e(  4 -  5) =     -8.44156  eV     2   --> E    L_3       
     e(  6 -  6) =     -5.24345  eV     1   --> A_1  L_1       
     e(  7 -  7) =      1.01626  eV     1   --> A_1  L_1       
     e(  8 -  9) =      5.27416  eV     2   --> E    L_3       
     e( 10 - 10) =      7.21460  eV     1   --> A_1  L_1       
     e( 11 - 12) =     10.77769  eV     2   --> E    L_3       
     e( 13 - 13) =     13.01397  eV     1   --> A_1  L_1       

 **************************************************************************

 **************************************************************************

                    xk=(   0.30000,  -0.30000,   0.30000  )

     Band symmetry, C_3v (3m)   point group:

     e(  1 -  1) =     -8.55559  eV     1   --> A_1  L_1       
     e(  2 -  3) =     -8.49833  eV     2   --> E    L_3       
     e(  4 -  5) =     -8.44199  eV     2   --> E    L_3       
     e(  6 -  6) =     -5.37148  eV     1   --> A_1  L_1       
     e(  7 -  7) =      1.34714  eV     1   --> A_1  L_1       
     e(  8 -  9) =      5.33919  eV     2   --> E    L_3       
     e( 10 - 10) =      7.27832  eV     1   --> A_1  L_1       
     e( 11 - 12) =     10.75988  eV     2   --> E    L_3       
     e( 13 - 13) =     12.63559  eV     1   --> A_1  L_1       

 **************************************************************************

 **************************************************************************

                    xk=(   0.27500,  -0.27500,   0.27500  )

     Band symmetry, C_3v (3m)   point group:

     e(  1 -  1) =     -8.55074  eV     1   --> A_1  L_1       
     e(  2 -  3) =     -8.49951  eV     2   --> E    L_3       
     e(  4 -  5) =     -8.44238  eV     2   --> E    L_3       
     e(  6 -  6) =     -5.49722  eV     1   --> A_1  L_1       
     e(  7 -  7) =      1.70075  eV     1   --> A_1  L_1       
     e(  8 -  9) =      5.41067  eV     2   --> E    L_3       
     e( 10 - 10) =      7.34540  eV     1   --> A_1  L_1       
     e( 11 - 12) =     10.72472  eV     2   --> E    L_3       
     e( 13 - 13) =     12.24187  eV     1   --> A_1  L_1       

 **************************************************************************

 **************************************************************************

                    xk=(   0.25000,  -0.25000,   0.25000  )

     Band symmetry, C_3v (3m)   point group:

     e(  1 -  1) =     -8.54566  eV     1   --> A_1  L_1       
     e(  2 -  3) =     -8.50079  eV     2   --> E    L_3       
     e(  4 -  5) =     -8.44270  eV     2   --> E    L_3       
     e(  6 -  6) =     -5.61805  eV     1   --> A_1  L_1       
     e(  7 -  7) =      2.07368  eV     1   --> A_1  L_1       
     e(  8 -  9) =      5.48771  eV     2   --> E    L_3       
     e( 10 - 10) =      7.41257  eV     1   --> A_1  L_1       
     e( 11 - 12) =     10.66974  eV     2   --> E    L_3       
     e( 13 - 13) =     11.84784  eV     1   --> A_1  L_1       

 **************************************************************************

 **************************************************************************

                    xk=(   0.22500,  -0.22500,   0.22500  )

     Band symmetry, C_3v (3m)   point group:

     e(  1 -  1) =     -8.54047  eV     1   --> A_1  L_1       
     e(  2 -  3) =     -8.50214  eV     2   --> E    L_3       
     e(  4 -  5) =     -8.44295  eV     2   --> E    L_3       
     e(  6 -  6) =     -5.73191  eV     1   --> A_1  L_1       
     e(  7 -  7) =      2.46284  eV     1   --> A_1  L_1       
     e(  8 -  9) =      5.56903  eV     2   --> E    L_3       
     e( 10 - 10) =      7.47493  eV     1   --> A_1  L_1       
     e( 11 - 12) =     10.59454  eV     2   --> E    L_3       
     e( 13 - 13) =     11.46379  eV     1   --> A_1  L_1       

 **************************************************************************

 **************************************************************************

                    xk=(   0.20000,  -0.20000,   0.20000  )

     Band symmetry, C_3v (3m)   point group:

     e(  1 -  1) =     -8.53531  eV     1   --> A_1  L_1       
     e(  2 -  3) =     -8.50351  eV     2   --> E    L_3       
     e(  4 -  5) =     -8.44314  eV     2   --> E    L_3       
     e(  6 -  6) =     -5.83718  eV     1   --> A_1  L_1       
     e(  7 -  7) =      2.86535  eV     1   --> A_1  L_1       
     e(  8 -  9) =      5.65312  eV     2   --> E    L_3       
     e( 10 - 10) =      7.52520  eV     1   --> A_1  L_1       
     e( 11 - 12) =     10.50126  eV     2   --> E    L_3       
     e( 13 - 13) =     11.09861  eV     1   --> A_1  L_1       

 **************************************************************************

 **************************************************************************

                    xk=(   0.17500,  -0.17500,   0.17500  )

     Band symmetry, C_3v (3m)   point group:

     e(  1 -  1) =     -8.53031  eV     1   --> A_1  L_1       
     e(  2 -  3) =     -8.50487  eV     2   --> E    L_3       
     e(  4 -  5) =     -8.44326  eV     2   --> E    L_3       
     e(  6 -  6) =     -5.93257  eV     1   --> A_1  L_1       
     e(  7 -  7) =      3.27843  eV     1   --> A_1  L_1       
     e(  8 -  9) =      5.73799  eV     2   --> E    L_3       
     e( 10 - 10) =      7.55296  eV     1   --> A_1  L_1       
     e( 11 - 12) =     10.39441  eV     2   --> E    L_3       
     e( 13 - 13) =     10.76216  eV     1   --> A_1  L_1       

 **************************************************************************

 **************************************************************************

                    xk=(   0.15000,  -0.15000,   0.15000  )

     Band symmetry, C_3v (3m)   point group:

     e(  1 -  1) =     -8.52558  eV     1   --> A_1  L_1       
     e(  2 -  3) =     -8.50616  eV     2   --> E    L_3       
     e(  4 -  5) =     -8.44333  eV     2   --> E    L_3       
     e(  6 -  6) =     -6.01704  eV     1   --> A_1  L_1       
     e(  7 -  7) =      3.69947  eV     1   --> A_1  L_1       
     e(  8 -  9) =      5.82146  eV     2   --> E    L_3       
     e( 10 - 10) =      7.54425  eV     1   --> A_1  L_1       
     e( 11 - 12) =     10.28042  eV     2   --> E    L_3       
     e( 13 - 13) =     10.46698  eV     1   --> A_1  L_1       

 **************************************************************************

 **************************************************************************

                    xk=(   0.12500,  -0.12500,   0.12500  )

     Band symmetry, C_3v (3m)   point group:

     e(  1 -  1) =     -8.52128  eV     1   --> A_1  L_1       
     e(  2 -  3) =     -8.50734  eV     2   --> E    L_3       
     e(  4 -  5) =     -8.44336  eV     2   --> E    L_3       
     e(  6 -  6) =     -6.08977  eV     1   --> A_1  L_1       
     e(  7 -  7) =      4.12538  eV     1   --> A_1  L_1       
     e(  8 -  9) =      5.90059  eV     2   --> E    L_3       
     e( 10 - 10) =      7.48265  eV     1   --> A_1  L_1       
     e( 11 - 12) =     10.16640  eV     2   --> E    L_3       
     e( 13 - 13) =     10.22582  eV     1   --> A_1  L_1       

 **************************************************************************

 **************************************************************************

                    xk=(   0.10000,  -0.10000,   0.10000  )

     Band symmetry, C_3v (3m)   point group:

     e(  1 -  1) =     -8.51754  eV     1   --> A_1  L_1       
     e(  2 -  3) =     -8.50837  eV     2   --> E    L_3       
     e(  4 -  5) =     -8.44336  eV     2   --> E    L_3       
     e(  6 -  6) =     -6.15011  eV     1   --> A_1  L_1       
     e(  7 -  7) =      4.55297  eV     1   --> A_1  L_1       
     e(  8 -  9) =      5.97228  eV     2   --> E    L_3       
     e( 10 - 10) =      7.35413  eV     1   --> A_1  L_1       
     e( 11 - 11) =     10.04834  eV     1   --> A_1  L_1       
     e( 12 - 13) =     10.05996  eV     2   --> E    L_3       

 **************************************************************************

 **************************************************************************

                    xk=(   0.07500,  -0.07500,   0.07500  )

     Band symmetry, C_3v (3m)   point group:

     e(  1 -  1) =     -8.51449  eV     1   --> A_1  L_1       
     e(  2 -  3) =     -8.50922  eV     2   --> E    L_3       
     e(  4 -  5) =     -8.44335  eV     2   --> E    L_3       
     e(  6 -  6) =     -6.19755  eV     1   --> A_1  L_1       
     e(  7 -  7) =      4.97833  eV     1   --> A_1  L_1       
     e(  8 -  9) =      6.03308  eV     2   --> E    L_3       
     e( 10 - 10) =      7.15334  eV     1   --> A_1  L_1       
     e( 11 - 11) =      9.93434  eV     1   --> A_1  L_1       
     e( 12 - 13) =      9.96820  eV     2   --> E    L_3       

 **************************************************************************

 **************************************************************************

                    xk=(   0.05000,  -0.05000,   0.05000  )

     Band symmetry, C_3v (3m)   point group:

     e(  1 -  1) =     -8.51223  eV     1   --> A_1  L_1       
     e(  2 -  3) =     -8.50985  eV     2   --> E    L_3       
     e(  4 -  5) =     -8.44333  eV     2   --> E    L_3       
     e(  6 -  6) =     -6.23171  eV     1   --> A_1  L_1       
     e(  7 -  7) =      5.39676  eV     1   --> A_1  L_1       
     e(  8 -  9) =      6.07963  eV     2   --> E    L_3       
     e( 10 - 10) =      6.88655  eV     1   --> A_1  L_1       
     e( 11 - 11) =      9.87231  eV     1   --> A_1  L_1       
     e( 12 - 13) =      9.89749  eV     2   --> E    L_3       

 **************************************************************************

 **************************************************************************

                    xk=(   0.02500,  -0.02500,   0.02500  )

     Band symmetry, C_3v (3m)   point group:

     e(  1 -  1) =     -8.51083  eV     1   --> A_1  L_1       
     e(  2 -  3) =     -8.51024  eV     2   --> E    L_3       
     e(  4 -  5) =     -8.44332  eV     2   --> E    L_3       
     e(  6 -  6) =     -6.25231  eV     1   --> A_1  L_1       
     e(  7 -  7) =      5.80079  eV     1   --> A_1  L_1       
     e(  8 -  9) =      6.10880  eV     2   --> E    L_3       
     e( 10 - 10) =      6.56870  eV     1   --> A_1  L_1       
     e( 11 - 11) =      9.84489  eV     1   --> A_1  L_1       
     e( 12 - 13) =      9.85283  eV     2   --> E    L_3       

 **************************************************************************

 **************************************************************************

                    xk=(   0.00000,   0.00000,   0.00000  )

     point group T_d (-43m) 
     there are  5 classes
     the character table:

       E     8C3   3C2   6S4   6s_d 
A_1    1.00  1.00  1.00  1.00  1.00
A_2    1.00  1.00  1.00 -1.00 -1.00
E      2.00 -1.00  2.00  0.00  0.00
T_1    3.00  0.00 -1.00  1.00 -1.00
T_2    3.00  0.00 -1.00 -1.00  1.00

     the symmetry operations in each class and the name of the first element:

     E        1
                                                                 
     8C3      5    7    8    6   12    9   10   11
                                                                 
     3C2      2    3    4
                                                                 
     6S4     15   16   20   19   23   24
                                                                 
     6s_d    13   14   17   18   21   22
                                                                 

     Band symmetry, T_d (-43m)  point group:

     e(  1 -  3) =     -8.51037  eV     3   --> T_2  G_15 P_4  
     e(  4 -  5) =     -8.44331  eV     2   --> E    G_12 P_3  
     e(  6 -  6) =     -6.25919  eV     1   --> A_1  G_1  P_1  
     e(  7 -  9) =      6.11885  eV     3   --> T_2  G_15 P_4  
     e( 10 - 10) =      6.27839  eV     1   --> A_1  G_1  P_1  
     e( 11 - 13) =      9.83756  eV     3   --> T_2  G_15 P_4  

 **************************************************************************

 **************************************************************************

                    xk=(   0.00000,   0.00000,   0.05000  )

     point group C_2v (mm2) 
     there are  4 classes
     the character table:

       E     C2    s_v   s_v' 
A_1    1.00  1.00  1.00  1.00
A_2    1.00  1.00 -1.00 -1.00
B_1    1.00 -1.00  1.00 -1.00
B_2    1.00 -1.00 -1.00  1.00

     the symmetry operations in each class and the name of the first element:

     E        1
                                                                 
     C2       2
                                                                 
     s_v      3
                                                                 
     s_v'     4
                                                                 

     Band symmetry, C_2v (mm2)  point group:

     e(  1 -  1) =     -8.51114  eV     1   --> A_1  D_1  S_1  
     e(  2 -  3) =     -8.51012  eV     2   --> B_1  D_3  S_3  
     e(  2 -  3) =     -8.51012  eV     2   --> B_2  D_4  S_4  
     e(  4 -  4) =     -8.44340  eV     1   -->   ?
     e(  5 -  5) =     -8.44324  eV     1   -->   ?
     e(  6 -  6) =     -6.25001  eV     1   --> A_1  D_1  S_1  
     e(  7 -  7) =      5.75877  eV     1   --> A_1  D_1  S_1  
     e(  8 -  9) =      6.08812  eV     2   --> B_1  D_3  S_3  
     e(  8 -  9) =      6.08812  eV     2   --> B_2  D_4  S_4  
     e( 10 - 10) =      6.63724  eV     1   --> A_1  D_1  S_1  
     e( 11 - 11) =      9.80205  eV     1   --> A_1  D_1  S_1  
     e( 12 - 13) =      9.88030  eV     2   --> B_1  D_3  S_3  
     e( 12 - 13) =      9.88030  eV     2   --> B_2  D_4  S_4  

 **************************************************************************

 **************************************************************************

                    xk=(   0.00000,   0.00000,   0.10000  )

     Band symmetry, C_2v (mm2)  point group:

     e(  1 -  1) =     -8.51341  eV     1   --> A_1  D_1  S_1  
     e(  2 -  3) =     -8.50938  eV     2   --> B_1  D_3  S_3  
     e(  2 -  3) =     -8.50938  eV     2   --> B_2  D_4  S_4  
     e(  4 -  4) =     -8.44368  eV     1   --> A_1  D_1  S_1  
     e(  5 -  5) =     -8.44301  eV     1   --> A_2  D_2  S_2  
     e(  6 -  6) =     -6.22254  eV     1   --> A_1  D_1  S_1  
     e(  7 -  7) =      5.33089  eV     1   --> A_1  D_1  S_1  
     e(  8 -  9) =      6.00013  eV     2   --> B_1  D_3  S_3  
     e(  8 -  9) =      6.00013  eV     2   --> B_2  D_4  S_4  
     e( 10 - 10) =      7.05963  eV     1   --> A_1  D_1  S_1  
     e( 11 - 11) =      9.70247  eV     1   --> A_1  D_1  S_1  
     e( 12 - 13) =     10.00397  eV     2   --> B_1  D_3  S_3  
     e( 12 - 13) =     10.00397  eV     2   --> B_2  D_4  S_4  

 **************************************************************************

 **************************************************************************

                    xk=(   0.00000,   0.00000,   0.15000  )

     Band symmetry, C_2v (mm2)  point group:

     e(  1 -  1) =     -8.51708  eV     1   --> A_1  D_1  S_1  
     e(  2 -  3) =     -8.50816  eV     2   --> B_1  D_3  S_3  
     e(  2 -  3) =     -8.50816  eV     2   --> B_2  D_4  S_4  
     e(  4 -  4) =     -8.44414  eV     1   --> A_1  D_1  S_1  
     e(  5 -  5) =     -8.44265  eV     1   --> A_2  D_2  S_2  
     e(  6 -  6) =     -6.17700  eV     1   --> A_1  D_1  S_1  
     e(  7 -  7) =      4.90346  eV     1   --> A_1  D_1  S_1  
     e(  8 -  9) =      5.86602  eV     2   --> B_1  D_3  S_3  
     e(  8 -  9) =      5.86602  eV     2   --> B_2  D_4  S_4  
     e( 10 - 10) =      7.47309  eV     1   --> A_1  D_1  S_1  
     e( 11 - 11) =      9.55622  eV     1   --> A_1  D_1  S_1  
     e( 12 - 13) =     10.19739  eV     2   --> B_1  D_3  S_3  
     e( 12 - 13) =     10.19739  eV     2   --> B_2  D_4  S_4  

 **************************************************************************

 **************************************************************************

                    xk=(   0.00000,   0.00000,   0.20000  )

     Band symmetry, C_2v (mm2)  point group:

     e(  1 -  1) =     -8.52194  eV     1   --> A_1  D_1  S_1  
     e(  2 -  3) =     -8.50651  eV     2   --> B_1  D_3  S_3  
     e(  2 -  3) =     -8.50651  eV     2   --> B_2  D_4  S_4  
     e(  4 -  4) =     -8.44482  eV     1   --> A_1  D_1  S_1  
     e(  5 -  5) =     -8.44215  eV     1   --> A_2  D_2  S_2  
     e(  6 -  6) =     -6.11374  eV     1   --> A_1  D_1  S_1  
     e(  7 -  7) =      4.47944  eV     1   --> A_1  D_1  S_1  
     e(  8 -  9) =      5.69905  eV     2   --> B_1  D_3  S_3  
     e(  8 -  9) =      5.69905  eV     2   --> B_2  D_4  S_4  
     e( 10 - 10) =      7.86540  eV     1   --> A_1  D_1  S_1  
     e( 11 - 11) =      9.38497  eV     1   --> A_1  D_1  S_1  
     e( 12 - 13) =     10.44686  eV     2   --> B_1  D_3  S_3  
     e( 12 - 13) =     10.44686  eV     2   --> B_2  D_4  S_4  

 **************************************************************************

 **************************************************************************

                    xk=(   0.00000,   0.00000,   0.25000  )

     Band symmetry, C_2v (mm2)  point group:

     e(  1 -  1) =     -8.52779  eV     1   --> A_1  D_1  S_1  
     e(  2 -  3) =     -8.50444  eV     2   --> B_1  D_3  S_3  
     e(  2 -  3) =     -8.50444  eV     2   --> B_2  D_4  S_4  
     e(  4 -  4) =     -8.44570  eV     1   --> A_1  D_1  S_1  
     e(  5 -  5) =     -8.44152  eV     1   --> A_2  D_2  S_2  
     e(  6 -  6) =     -6.03321  eV     1   --> A_1  D_1  S_1  
     e(  7 -  7) =      4.06011  eV     1   --> A_1  D_1  S_1  
     e(  8 -  9) =      5.51175  eV     2   --> B_1  D_3  S_3  
     e(  8 -  9) =      5.51175  eV     2   --> B_2  D_4  S_4  
     e( 10 - 10) =      8.21574  eV     1   --> A_1  D_1  S_1  
     e( 11 - 11) =      9.21447  eV     1   --> A_1  D_1  S_1  
     e( 12 - 13) =     10.73980  eV     2   --> B_1  D_3  S_3  
     e( 12 - 13) =     10.73980  eV     2   --> B_2  D_4  S_4  

 **************************************************************************

 **************************************************************************

                    xk=(   0.00000,   0.00000,   0.30000  )

     Band symmetry, C_2v (mm2)  point group:

     e(  1 -  1) =     -8.53440  eV     1   --> A_1  D_1  S_1  
     e(  2 -  3) =     -8.50201  eV     2   --> B_1  D_3  S_3  
     e(  2 -  3) =     -8.50201  eV     2   --> B_2  D_4  S_4  
     e(  4 -  4) =     -8.44679  eV     1   --> A_1  D_1  S_1  
     e(  5 -  5) =     -8.44080  eV     1   --> A_2  D_2  S_2  
     e(  6 -  6) =     -5.93605  eV     1   --> A_1  D_1  S_1  
     e(  7 -  7) =      3.64616  eV     1   --> A_1  D_1  S_1  
     e(  8 -  9) =      5.31401  eV     2   --> B_1  D_3  S_3  
     e(  8 -  9) =      5.31401  eV     2   --> B_2  D_4  S_4  
     e( 10 - 10) =      8.47172  eV     1   --> A_1  D_1  S_1  
     e( 11 - 11) =      9.09333  eV     1   --> A_1  D_1  S_1  
     e( 12 - 13) =     11.06576  eV     2   --> B_1  D_3  S_3  
     e( 12 - 13) =     11.06576  eV     2   --> B_2  D_4  S_4  

 **************************************************************************

 **************************************************************************

                    xk=(   0.00000,   0.00000,   0.35000  )

     Band symmetry, C_2v (mm2)  point group:

     e(  1 -  1) =     -8.54151  eV     1   --> A_1  D_1  S_1  
     e(  2 -  3) =     -8.49926  eV     2   --> B_1  D_3  S_3  
     e(  2 -  3) =     -8.49926  eV     2   --> B_2  D_4  S_4  
     e(  4 -  4) =     -8.44805  eV     1   --> A_1  D_1  S_1  
     e(  5 -  5) =     -8.43999  eV     1   --> A_2  D_2  S_2  
     e(  6 -  6) =     -5.82298  eV     1   --> A_1  D_1  S_1  
     e(  7 -  7) =      3.23842  eV     1   --> A_1  D_1  S_1  
     e(  8 -  9) =      5.11346  eV     2   --> B_1  D_3  S_3  
     e(  8 -  9) =      5.11346  eV     2   --> B_2  D_4  S_4  
     e( 10 - 10) =      8.52864  eV     1   --> A_1  D_1  S_1  
     e( 11 - 11) =      9.11398  eV     1   --> A_1  D_1  S_1  
     e( 12 - 13) =     11.41682  eV     2   --> B_1  D_3  S_3  
     e( 12 - 13) =     11.41682  eV     2   --> B_2  D_4  S_4  

 **************************************************************************

 **************************************************************************

                    xk=(   0.00000,   0.00000,   0.40000  )

     Band symmetry, C_2v (mm2)  point group:

     e(  1 -  1) =     -8.54892  eV     1   --> A_1  D_1  S_1  
     e(  2 -  3) =     -8.49627  eV     2   --> B_1  D_3  S_3  
     e(  2 -  3) =     -8.49627  eV     2   --> B_2  D_4  S_4  
     e(  4 -  4) =     -8.44948  eV     1   --> A_1  D_1  S_1  
     e(  5 -  5) =     -8.43911  eV     1   --> A_2  D_2  S_2  
     e(  6 -  6) =     -5.69490  eV     1   --> A_1  D_1  S_1  
     e(  7 -  7) =      2.83761  eV     1   --> A_1  D_1  S_1  
     e(  8 -  9) =      4.91574  eV     2   --> B_1  D_3  S_3  
     e(  8 -  9) =      4.91574  eV     2   --> B_2  D_4  S_4  
     e( 10 - 10) =      8.42250  eV     1   --> A_1  D_1  S_1  
     e( 11 - 11) =      9.22228  eV     1   --> A_1  D_1  S_1  
     e( 12 - 13) =     11.78700  eV     2   --> B_1  D_3  S_3  
     e( 12 - 13) =     11.78700  eV     2   --> B_2  D_4  S_4  

 **************************************************************************

 **************************************************************************

                    xk=(   0.00000,   0.00000,   0.45000  )

     Band symmetry, C_2v (mm2)  point group:

     e(  1 -  1) =     -8.55640  eV     1   --> A_1  D_1  S_1  
     e(  2 -  3) =     -8.49311  eV     2   --> B_1  D_3  S_3  
     e(  2 -  3) =     -8.49311  eV     2   --> B_2  D_4  S_4  
     e(  4 -  4) =     -8.45103  eV     1   --> A_1  D_1  S_1  
     e(  5 -  5) =     -8.43818  eV     1   --> A_2  D_2  S_2  
     e(  6 -  6) =     -5.55292  eV     1   --> A_1  D_1  S_1  
     e(  7 -  7) =      2.44462  eV     1   --> A_1  D_1  S_1  
     e(  8 -  9) =      4.72481  eV     2   --> B_1  D_3  S_3  
     e(  8 -  9) =      4.72481  eV     2   --> B_2  D_4  S_4  
     e( 10 - 10) =      8.27451  eV     1   --> A_1  D_1  S_1  
     e( 11 - 11) =      9.28273  eV     1   --> A_1  D_1  S_1  
     e( 12 - 13) =     12.17145  eV     2   --> B_1  D_3  S_3  
     e( 12 - 13) =     12.17145  eV     2   --> B_2  D_4  S_4  

 **************************************************************************

 **************************************************************************

                    xk=(   0.00000,   0.00000,   0.50000  )

     Band symmetry, C_2v (mm2)  point group:

     e(  1 -  1) =     -8.56378  eV     1   --> A_1  D_1  S_1  
     e(  2 -  3) =     -8.48984  eV     2   --> B_1  D_3  S_3  
     e(  2 -  3) =     -8.48984  eV     2   --> B_2  D_4  S_4  
     e(  4 -  4) =     -8.45267  eV     1   --> A_1  D_1  S_1  
     e(  5 -  5) =     -8.43723  eV     1   --> A_2  D_2  S_2  
     e(  6 -  6) =     -5.39838  eV     1   --> A_1  D_1  S_1  
     e(  7 -  7) =      2.06069  eV     1   --> A_1  D_1  S_1  
     e(  8 -  9) =      4.54398  eV     2   --> B_1  D_3  S_3  
     e(  8 -  9) =      4.54398  eV     2   --> B_2  D_4  S_4  
     e( 10 - 10) =      8.12629  eV     1   --> A_1  D_1  S_1  
     e( 11 - 11) =      9.25584  eV     1   --> A_1  D_1  S_1  
     e( 12 - 13) =     12.56691  eV     2   --> B_1  D_3  S_3  
     e( 12 - 13) =     12.56691  eV     2   --> B_2  D_4  S_4  

 **************************************************************************

 **************************************************************************

                    xk=(   0.00000,   0.00000,   0.55000  )

     Band symmetry, C_2v (mm2)  point group:

     e(  1 -  1) =     -8.57089  eV     1   --> A_1  D_1  S_1  
     e(  2 -  3) =     -8.48656  eV     2   --> B_1  D_3  S_3  
     e(  2 -  3) =     -8.48656  eV     2   --> B_2  D_4  S_4  
     e(  4 -  4) =     -8.45436  eV     1   --> A_1  D_1  S_1  
     e(  5 -  5) =     -8.43628  eV     1   --> A_2  D_2  S_2  
     e(  6 -  6) =     -5.23299  eV     1   --> A_1  D_1  S_1  
     e(  7 -  7) =      1.68735  eV     1   --> A_1  D_1  S_1  
     e(  8 -  9) =      4.37545  eV     2   --> B_1  D_3  S_3  
     e(  8 -  9) =      4.37545  eV     2   --> B_2  D_4  S_4  
     e( 10 - 10) =      7.99009  eV     1   --> A_1  D_1  S_1  
     e( 11 - 11) =      9.15066  eV     1   --> A_1  D_1  S_1  
     e( 12 - 13) =     12.97007  eV     2   --> B_1  D_3  S_3  
     e( 12 - 13) =     12.97007  eV     2   --> B_2  D_4  S_4  

 **************************************************************************

 **************************************************************************

                    xk=(   0.00000,   0.00000,   0.60000  )

     Band symmetry, C_2v (mm2)  point group:

     e(  1 -  1) =     -8.57758  eV     1   --> A_1  D_1  S_1  
     e(  2 -  3) =     -8.48332  eV     2   --> B_1  D_3  S_3  
     e(  2 -  3) =     -8.48332  eV     2   --> B_2  D_4  S_4  
     e(  4 -  4) =     -8.45603  eV     1   --> A_1  D_1  S_1  
     e(  5 -  5) =     -8.43535  eV     1   --> A_2  D_2  S_2  
     e(  6 -  6) =     -5.05893  eV     1   --> A_1  D_1  S_1  
     e(  7 -  7) =      1.32679  eV     1   --> A_1  D_1  S_1  
     e(  8 -  9) =      4.22115  eV     2   --> B_1  D_3  S_3  
     e(  8 -  9) =      4.22115  eV     2   --> B_2  D_4  S_4  
     e( 10 - 10) =      7.87103  eV     1   --> A_1  D_1  S_1  
     e( 11 - 11) =      8.99264  eV     1   --> A_1  D_1  S_1  
     e( 12 - 13) =     13.37859  eV     2   --> B_1  D_3  S_3  
     e( 12 - 13) =     13.37859  eV     2   --> B_2  D_4  S_4  

 **************************************************************************

 **************************************************************************

                    xk=(   0.00000,   0.00000,   0.65000  )

     Band symmetry, C_2v (mm2)  point group:

     e(  1 -  1) =     -8.58375  eV     1   --> A_1  D_1  S_1  
     e(  2 -  3) =     -8.48024  eV     2   --> B_1  D_3  S_3  
     e(  2 -  3) =     -8.48024  eV     2   --> B_2  D_4  S_4  
     e(  4 -  4) =     -8.45766  eV     1   --> A_1  D_1  S_1  
     e(  5 -  5) =     -8.43447  eV     1   --> A_2  D_2  S_2  
     e(  6 -  6) =     -4.87907  eV     1   --> A_1  D_1  S_1  
     e(  7 -  7) =      0.98183  eV     1   --> A_1  D_1  S_1  
     e(  8 -  9) =      4.08230  eV     2   --> B_1  D_3  S_3  
     e(  8 -  9) =      4.08230  eV     2   --> B_2  D_4  S_4  
     e( 10 - 10) =      7.77165  eV     1   --> A_1  D_1  S_1  
     e( 11 - 11) =      8.80684  eV     1   --> A_1  D_1  S_1  
     e( 12 - 12) =     13.78889  eV     1   -->   ?
     e( 13 - 13) =     13.78908  eV     1   -->   ?

 **************************************************************************

 **************************************************************************

                    xk=(   0.00000,   0.00000,   0.70000  )

     Band symmetry, C_2v (mm2)  point group:

     e(  1 -  1) =     -8.58928  eV     1   --> A_1  D_1  S_1  
     e(  2 -  3) =     -8.47738  eV     2   --> B_1  D_3  S_3  
     e(  2 -  3) =     -8.47738  eV     2   --> B_2  D_4  S_4  
     e(  4 -  4) =     -8.45918  eV     1   --> A_1  D_1  S_1  
     e(  5 -  5) =     -8.43365  eV     1   --> A_2  D_2  S_2  
     e(  6 -  6) =     -4.69722  eV     1   --> A_1  D_1  S_1  
     e(  7 -  7) =      0.65639  eV     1   --> A_1  D_1  S_1  
     e(  8 -  9) =      3.96011  eV     2   --> B_1  D_3  S_3  
     e(  8 -  9) =      3.96011  eV     2   --> B_2  D_4  S_4  
     e( 10 - 10) =      7.69365  eV     1   --> A_1  D_1  S_1  
     e( 11 - 11) =      8.61237  eV     1   --> A_1  D_1  S_1  
     e( 12 - 13) =     14.19773  eV     2   --> B_1  D_3  S_3  
     e( 12 - 13) =     14.19773  eV     2   --> B_2  D_4  S_4  

 **************************************************************************

 **************************************************************************

                    xk=(   0.00000,   0.00000,   0.75000  )

     Band symmetry, C_2v (mm2)  point group:

     e(  1 -  1) =     -8.59411  eV     1   --> A_1  D_1  S_1  
     e(  2 -  3) =     -8.47482  eV     2   --> B_1  D_3  S_3  
     e(  2 -  3) =     -8.47482  eV     2   --> B_2  D_4  S_4  
     e(  4 -  4) =     -8.46056  eV     1   --> A_1  D_1  S_1  
     e(  5 -  5) =     -8.43293  eV     1   --> A_2  D_2  S_2  
     e(  6 -  6) =     -4.51852  eV     1   --> A_1  D_1  S_1  
     e(  7 -  7) =      0.35572  eV     1   --> A_1  D_1  S_1  
     e(  8 -  9) =      3.85539  eV     2   --> B_1  D_3  S_3  
     e(  8 -  9) =      3.85539  eV     2   --> B_2  D_4  S_4  
     e( 10 - 10) =      7.63806  eV     1   --> A_1  D_1  S_1  
     e( 11 - 11) =      8.42212  eV     1   --> A_1  D_1  S_1  
     e( 12 - 13) =     14.59920  eV     2   --> B_1  D_3  S_3  
     e( 12 - 13) =     14.59920  eV     2   --> B_2  D_4  S_4  

 **************************************************************************

 **************************************************************************

                    xk=(   0.00000,   0.00000,   0.80000  )

     Band symmetry, C_2v (mm2)  point group:

     e(  1 -  1) =     -8.59814  eV     1   --> A_1  D_1  S_1  
     e(  2 -  3) =     -8.47262  eV     2   --> B_1  D_3  S_3  
     e(  2 -  3) =     -8.47262  eV     2   --> B_2  D_4  S_4  
     e(  4 -  4) =     -8.46175  eV     1   --> A_1  D_1  S_1  
     e(  5 -  5) =     -8.43231  eV     1   --> A_2  D_2  S_2  
     e(  6 -  6) =     -4.34978  eV     1   --> A_1  D_1  S_1  
     e(  7 -  7) =      0.08690  eV     1   --> A_1  D_1  S_1  
     e(  8 -  9) =      3.76890  eV     2   --> B_1  D_3  S_3  
     e(  8 -  9) =      3.76890  eV     2   --> B_2  D_4  S_4  
     e( 10 - 10) =      7.60577  eV     1   --> A_1  D_1  S_1  
     e( 11 - 11) =      8.24492  eV     1   --> A_1  D_1  S_1  
     e( 12 - 13) =     14.98521  eV     2   -->   ?

 **************************************************************************

 **************************************************************************

                    xk=(   0.00000,   0.00000,   0.85000  )

     Band symmetry, C_2v (mm2)  point group:

     e(  1 -  1) =     -8.60134  eV     1   --> A_1  D_1  S_1  
     e(  2 -  3) =     -8.47084  eV     2   --> B_1  D_3  S_3  
     e(  2 -  3) =     -8.47084  eV     2   --> B_2  D_4  S_4  
     e(  4 -  4) =     -8.46271  eV     1   --> A_1  D_1  S_1  
     e(  5 -  5) =     -8.43181  eV     1   --> A_2  D_2  S_2  
     e(  6 -  6) =     -4.20003  eV     1   --> A_1  D_1  S_1  
     e(  7 -  7) =     -0.14099  eV     1   --> A_1  D_1  S_1  
     e(  8 -  9) =      3.70110  eV     2   --> B_1  D_3  S_3  
     e(  8 -  9) =      3.70110  eV     2   --> B_2  D_4  S_4  
     e( 10 - 10) =      7.59684  eV     1   --> A_1  D_1  S_1  
     e( 11 - 11) =      8.08606  eV     1   --> A_1  D_1  S_1  
     e( 12 - 13) =     15.34082  eV     2   --> B_1  D_3  S_3  
     e( 12 - 13) =     15.34082  eV     2   --> B_2  D_4  S_4  

 **************************************************************************

 **************************************************************************

                    xk=(   0.00000,   0.00000,   0.90000  )

     Band symmetry, C_2v (mm2)  point group:

     e(  1 -  1) =     -8.60365  eV     1   --> A_1  D_1  S_1  
     e(  2 -  3) =     -8.46954  eV     2   --> B_1  D_3  S_3  
     e(  2 -  3) =     -8.46954  eV     2   --> B_2  D_4  S_4  
     e(  4 -  4) =     -8.46342  eV     1   --> A_1  D_1  S_1  
     e(  5 -  5) =     -8.43145  eV     1   --> A_2  D_2  S_2  
     e(  6 -  6) =     -4.08010  eV     1   --> A_1  D_1  S_1  
     e(  7 -  7) =     -0.31684  eV     1   --> A_1  D_1  S_1  
     e(  8 -  9) =      3.65243  eV     2   --> B_1  D_3  S_3  
     e(  8 -  9) =      3.65243  eV     2   --> B_2  D_4  S_4  
     e( 10 - 10) =      7.61104  eV     1   --> A_1  D_1  S_1  
     e( 11 - 11) =      7.94991  eV     1   --> A_1  D_1  S_1  
     e( 12 - 13) =     15.64213  eV     2   --> B_1  D_3  S_3  
     e( 12 - 13) =     15.64213  eV     2   --> B_2  D_4  S_4  

 **************************************************************************

 **************************************************************************

                    xk=(   0.00000,   0.00000,   0.95000  )

     Band symmetry, C_2v (mm2)  point group:

     e(  1 -  1) =     -8.60505  eV     1   --> A_1  D_1  S_1  
     e(  2 -  3) =     -8.46873  eV     2   --> B_1  D_3  S_3  
     e(  2 -  3) =     -8.46873  eV     2   --> B_2  D_4  S_4  
     e(  4 -  4) =     -8.46387  eV     1   --> A_1  D_1  S_1  
     e(  5 -  5) =     -8.43122  eV     1   --> A_2  D_2  S_2  
     e(  6 -  6) =     -4.00168  eV     1   --> A_1  D_1  S_1  
     e(  7 -  7) =     -0.42888  eV     1   --> A_1  D_1  S_1  
     e(  8 -  9) =      3.62314  eV     2   --> B_1  D_3  S_3  
     e(  8 -  9) =      3.62314  eV     2   --> B_2  D_4  S_4  
     e( 10 - 10) =      7.64474  eV     1   --> A_1  D_1  S_1  
     e( 11 - 11) =      7.84201  eV     1   --> A_1  D_1  S_1  
     e( 12 - 13) =     15.85207  eV     2   --> B_1  D_3  S_3  
     e( 12 - 13) =     15.85207  eV     2   --> B_2  D_4  S_4  

 **************************************************************************

 **************************************************************************

                    xk=(   0.00000,   0.00000,   1.00000  )

     point group D_2d (-42m)
     there are  5 classes
     the character table:

       E     2S4   C2    2C2'  2s_d 
A_1    1.00  1.00  1.00  1.00  1.00
A_2    1.00  1.00  1.00 -1.00 -1.00
B_1    1.00 -1.00  1.00  1.00 -1.00
B_2    1.00 -1.00  1.00 -1.00  1.00
E      2.00  0.00 -2.00  0.00  0.00

     the symmetry operations in each class and the name of the first element:

     E        1
                                                                 
     2S4      7    8
                                                                 
     C2       2
                                                                 
     2C2'     3    4
                                                                 
     2s_d     5    6
                                                                 

     Band symmetry, D_2d (-42m) point group:

     e(  1 -  1) =     -8.60551  eV     1   --> B_2  X_3  W_2  
     e(  2 -  3) =     -8.46847  eV     2   --> E    X_5  W_3  
     e(  4 -  4) =     -8.46402  eV     1   --> A_1  X_1  W_1  
     e(  5 -  5) =     -8.43115  eV     1   --> B_1  X_2  W_1' 
     e(  6 -  6) =     -3.97430  eV     1   --> B_2  X_3  W_2  
     e(  7 -  7) =     -0.46748  eV     1   --> A_1  X_1  W_1  
     e(  8 -  9) =      3.61335  eV     2   --> E    X_5  W_3  
     e( 10 - 10) =      7.67297  eV     1   --> B_2  X_3  W_2  
     e( 11 - 11) =      7.78901  eV     1   --> A_1  X_1  W_1  
     e( 12 - 13) =     15.92879  eV     2   --> E    X_5  W_3  

 **************************************************************************

 **************************************************************************

                    xk=(   0.05000,   0.02500,   0.95000  )

     point group C_1 (1)    
     there are  1 classes
     the character table:

       E    
A      1.00

     the symmetry operations in each class and the name of the first element:

     E        1
                                                                 

     Band symmetry, C_1 (1)     point group:

     e(  1 -  1) =     -8.60474  eV     1   --> A              
     e(  2 -  2) =     -8.46925  eV     1   --> A              
     e(  3 -  3) =     -8.46892  eV     1   --> A              
     e(  4 -  4) =     -8.46342  eV     1   --> A              
     e(  5 -  5) =     -8.43138  eV     1   --> A              
     e(  6 -  6) =     -4.00004  eV     1   --> A              
     e(  7 -  7) =     -0.42486  eV     1   --> A              
     e(  8 -  8) =      3.56825  eV     1   --> A              
     e(  9 -  9) =      3.62609  eV     1   --> A              
     e( 10 - 10) =      7.69731  eV     1   --> A              
     e( 11 - 11) =      7.90718  eV     1   --> A              
     e( 12 - 12) =     15.67426  eV     1   --> A              
     e( 13 - 13) =     15.77996  eV     1   --> A              

 **************************************************************************

 **************************************************************************

                    xk=(   0.10000,   0.05000,   0.90000  )

     Band symmetry, C_1 (1)     point group:

     e(  1 -  1) =     -8.60247  eV     1   --> A              
     e(  2 -  2) =     -8.47132  eV     1   --> A              
     e(  3 -  3) =     -8.47018  eV     1   --> A              
     e(  4 -  4) =     -8.46198  eV     1   --> A              
     e(  5 -  5) =     -8.43204  eV     1   --> A              
     e(  6 -  6) =     -4.07134  eV     1   --> A              
     e(  7 -  7) =     -0.30712  eV     1   --> A              
     e(  8 -  8) =      3.45343  eV     1   --> A              
     e(  9 -  9) =      3.66533  eV     1   --> A              
     e( 10 - 10) =      7.79136  eV     1   --> A              
     e( 11 - 11) =      8.22034  eV     1   --> A              
     e( 12 - 12) =     14.96595  eV     1   --> A              
     e( 13 - 13) =     15.42561  eV     1   --> A              

 **************************************************************************

 **************************************************************************

                    xk=(   0.15000,   0.07500,   0.85000  )

     Band symmetry, C_1 (1)     point group:

     e(  1 -  1) =     -8.59894  eV     1   --> A              
     e(  2 -  2) =     -8.47437  eV     1   --> A              
     e(  3 -  3) =     -8.47213  eV     1   --> A              
     e(  4 -  4) =     -8.45997  eV     1   --> A              
     e(  5 -  5) =     -8.43300  eV     1   --> A              
     e(  6 -  6) =     -4.17366  eV     1   --> A              
     e(  7 -  7) =     -0.14170  eV     1   --> A              
     e(  8 -  8) =      3.31648  eV     1   --> A              
     e(  9 -  9) =      3.73411  eV     1   --> A              
     e( 10 - 10) =      7.95333  eV     1   --> A              
     e( 11 - 11) =      8.68253  eV     1   --> A              
     e( 12 - 12) =     14.06613  eV     1   --> A              
     e( 13 - 13) =     14.95114  eV     1   --> A              

 **************************************************************************

 **************************************************************************

                    xk=(   0.20000,   0.10000,   0.80000  )

     Band symmetry, C_1 (1)     point group:

     e(  1 -  1) =     -8.59450  eV     1   --> A              
     e(  2 -  2) =     -8.47814  eV     1   --> A              
     e(  3 -  3) =     -8.47465  eV     1   --> A              
     e(  4 -  4) =     -8.45752  eV     1   --> A              
     e(  5 -  5) =     -8.43413  eV     1   --> A              
     e(  6 -  6) =     -4.29023  eV     1   --> A              
     e(  7 -  7) =      0.03304  eV     1   --> A              
     e(  8 -  8) =      3.20931  eV     1   --> A              
     e(  9 -  9) =      3.83739  eV     1   --> A              
     e( 10 - 10) =      8.17061  eV     1   --> A              
     e( 11 - 11) =      9.24811  eV     1   --> A              
     e( 12 - 12) =     13.13910  eV     1   --> A              
     e( 13 - 13) =     14.40925  eV     1   --> A              

 **************************************************************************

 **************************************************************************

                    xk=(   0.25000,   0.12500,   0.75000  )

     Band symmetry, C_1 (1)     point group:

     e(  1 -  1) =     -8.58962  eV     1   --> A              
     e(  2 -  2) =     -8.48220  eV     1   --> A              
     e(  3 -  3) =     -8.47764  eV     1   --> A              
     e(  4 -  4) =     -8.45473  eV     1   --> A              
     e(  5 -  5) =     -8.43533  eV     1   --> A              
     e(  6 -  6) =     -4.40646  eV     1   --> A              
     e(  7 -  7) =      0.17639  eV     1   --> A              
     e(  8 -  8) =      3.17384  eV     1   --> A              
     e(  9 -  9) =      3.98169  eV     1   --> A              
     e( 10 - 10) =      8.42353  eV     1   --> A              
     e( 11 - 11) =      9.85803  eV     1   --> A              
     e( 12 - 12) =     12.28355  eV     1   --> A              
     e( 13 - 13) =     13.83867  eV     1   --> A              

 **************************************************************************

 **************************************************************************

                    xk=(   0.30000,   0.15000,   0.70000  )

     Band symmetry, C_1 (1)     point group:

     e(  1 -  1) =     -8.58485  eV     1   --> A              
     e(  2 -  2) =     -8.48605  eV     1   --> A              
     e(  3 -  3) =     -8.48093  eV     1   --> A              
     e(  4 -  4) =     -8.45176  eV     1   --> A              
     e(  5 -  5) =     -8.43652  eV     1   --> A              
     e(  6 -  6) =     -4.51131  eV     1   --> A              
     e(  7 -  7) =      0.25874  eV     1   --> A              
     e(  8 -  8) =      3.22971  eV     1   --> A              
     e(  9 -  9) =      4.17341  eV     1   --> A              
     e( 10 - 10) =      8.67003  eV     1   --> A              
     e( 11 - 11) =     10.35395  eV     1   --> A              
     e( 12 - 12) =     11.68669  eV     1   --> A              
     e( 13 - 13) =     13.27408  eV     1   --> A              

 **************************************************************************

 **************************************************************************

                    xk=(   0.35000,   0.17500,   0.65000  )

     Band symmetry, C_1 (1)     point group:

     e(  1 -  1) =     -8.58073  eV     1   --> A              
     e(  2 -  2) =     -8.48919  eV     1   --> A              
     e(  3 -  3) =     -8.48429  eV     1   --> A              
     e(  4 -  4) =     -8.44876  eV     1   --> A              
     e(  5 -  5) =     -8.43768  eV     1   --> A              
     e(  6 -  6) =     -4.59715  eV     1   --> A              
     e(  7 -  7) =      0.27456  eV     1   --> A              
     e(  8 -  8) =      3.36552  eV     1   --> A              
     e(  9 -  9) =      4.41267  eV     1   --> A              
     e( 10 - 10) =      8.80048  eV     1   --> A              
     e( 11 - 11) =     10.37203  eV     1   --> A              
     e( 12 - 12) =     11.74697  eV     1   --> A              
     e( 13 - 13) =     12.79513  eV     1   --> A              

 **************************************************************************

 **************************************************************************

                    xk=(   0.40000,   0.20000,   0.60000  )

     Band symmetry, C_1 (1)     point group:

     e(  1 -  1) =     -8.57769  eV     1   --> A              
     e(  2 -  2) =     -8.49126  eV     1   --> A              
     e(  3 -  3) =     -8.48743  eV     1   --> A              
     e(  4 -  4) =     -8.44591  eV     1   --> A              
     e(  5 -  5) =     -8.43881  eV     1   --> A              
     e(  6 -  6) =     -4.65893  eV     1   --> A              
     e(  7 -  7) =      0.24037  eV     1   --> A              
     e(  8 -  8) =      3.54774  eV     1   --> A              
     e(  9 -  9) =      4.67917  eV     1   --> A              
     e( 10 - 10) =      8.64577  eV     1   --> A              
     e( 11 - 11) =     10.32722  eV     1   --> A              
     e( 12 - 12) =     11.79527  eV     1   --> A              
     e( 13 - 13) =     12.81699  eV     1   --> A              

 **************************************************************************

 **************************************************************************

                    xk=(   0.45000,   0.22500,   0.55000  )

     Band symmetry, C_1 (1)     point group:

     e(  1 -  1) =     -8.57596  eV     1   --> A              
     e(  2 -  2) =     -8.49217  eV     1   --> A              
     e(  3 -  3) =     -8.49002  eV     1   --> A              
     e(  4 -  4) =     -8.44340  eV     1   --> A              
     e(  5 -  5) =     -8.43994  eV     1   --> A              
     e(  6 -  6) =     -4.69369  eV     1   --> A              
     e(  7 -  7) =      0.17995  eV     1   --> A              
     e(  8 -  8) =      3.74046  eV     1   --> A              
     e(  9 -  9) =      4.91310  eV     1   --> A              
     e( 10 - 10) =      8.30930  eV     1   --> A              
     e( 11 - 11) =     10.50915  eV     1   --> A              
     e( 12 - 12) =     11.41299  eV     1   --> A              
     e( 13 - 13) =     13.32452  eV     1   --> A              

 **************************************************************************

 **************************************************************************

                    xk=(   0.50000,   0.25000,   0.50000  )

     point group C_s (m)    
     there are  2 classes
     the character table:

       E     s    
A'     1.00  1.00
A''    1.00 -1.00

     the symmetry operations in each class and the name of the first element:

     E        1
                                                                 
     s        2
                                                                 

     Band symmetry, C_s (m)     point group:

     e(  1 -  1) =     -8.57553  eV     1   --> A'             
     e(  2 -  2) =     -8.49227  eV     1   --> A'             
     e(  3 -  3) =     -8.49151  eV     1   --> A''            
     e(  4 -  4) =     -8.44167  eV     1   --> A''            
     e(  5 -  5) =     -8.44076  eV     1   --> A'             
     e(  6 -  6) =     -4.70001  eV     1   --> A'             
     e(  7 -  7) =      0.11312  eV     1   --> A'             
     e(  8 -  8) =      3.91164  eV     1   --> A'             
     e(  9 -  9) =      5.01492  eV     1   --> A''            
     e( 10 - 10) =      8.07136  eV     1   --> A'             
     e( 11 - 11) =     10.65902  eV     1   --> A'             
     e( 12 - 12) =     11.13039  eV     1   --> A''            
     e( 13 - 13) =     13.65952  eV     1   --> A'             

 **************************************************************************

 **************************************************************************

                    xk=(   0.55000,   0.27500,   0.45000  )

     point group C_1 (1)    
     there are  1 classes
     the character table:

       E    
A      1.00

     the symmetry operations in each class and the name of the first element:

     E        1
                                                                 

     Band symmetry, C_1 (1)     point group:

     e(  1 -  1) =     -8.57622  eV     1   --> A              
     e(  2 -  2) =     -8.49265  eV     1   --> A              
     e(  3 -  3) =     -8.49090  eV     1   --> A              
[...]
     e(  4 -  4) =     -8.45221  eV     1   --> A              
     e(  5 -  5) =     -8.43854  eV     1   --> A              
     e(  6 -  6) =     -3.93306  eV     1   --> A              
     e(  7 -  7) =     -0.30039  eV     1   --> A              
     e(  8 -  8) =      2.77263  eV     1   --> A              
     e(  9 -  9) =      3.07675  eV     1   --> A              
     e( 10 - 10) =     10.26489  eV     1   --> A              
     e( 11 - 11) =     10.75412  eV     1   --> A              
     e( 12 - 12) =     11.61898  eV     1   --> A              
     e( 13 - 13) =     12.28072  eV     1   --> A              

 **************************************************************************

 **************************************************************************

                    xk=(   0.95000,   0.55000,   0.00000  )

     Band symmetry, C_1 (1)     point group:

     e(  1 -  1) =     -8.59403  eV     1   --> A              
     e(  2 -  2) =     -8.48392  eV     1   --> A              
     e(  3 -  3) =     -8.47206  eV     1   --> A              
     e(  4 -  4) =     -8.45232  eV     1   --> A              
     e(  5 -  5) =     -8.43843  eV     1   --> A              
     e(  6 -  6) =     -3.93745  eV     1   --> A              
     e(  7 -  7) =     -0.29922  eV     1   --> A              
     e(  8 -  8) =      2.74828  eV     1   --> A              
     e(  9 -  9) =      3.12599  eV     1   --> A              
     e( 10 - 10) =     10.09978  eV     1   --> A              
     e( 11 - 11) =     10.74641  eV     1   --> A              
     e( 12 - 12) =     11.74319  eV     1   --> A              
     e( 13 - 13) =     12.36402  eV     1   --> A              

 **************************************************************************

 **************************************************************************

                    xk=(   0.93750,   0.56250,   0.00000  )

     Band symmetry, C_1 (1)     point group:

     e(  1 -  1) =     -8.59409  eV     1   --> A              
     e(  2 -  2) =     -8.48375  eV     1   --> A              
     e(  3 -  3) =     -8.47215  eV     1   --> A              
     e(  4 -  4) =     -8.45244  eV     1   --> A              
     e(  5 -  5) =     -8.43831  eV     1   --> A              
     e(  6 -  6) =     -3.94260  eV     1   --> A              
     e(  7 -  7) =     -0.29808  eV     1   --> A              
     e(  8 -  8) =      2.72315  eV     1   --> A              
     e(  9 -  9) =      3.18236  eV     1   --> A              
     e( 10 - 10) =      9.92162  eV     1   --> A              
     e( 11 - 11) =     10.74082  eV     1   --> A              
     e( 12 - 12) =     11.87624  eV     1   --> A              
     e( 13 - 13) =     12.45993  eV     1   --> A              

 **************************************************************************

 **************************************************************************

                    xk=(   0.92500,   0.57500,   0.00000  )

     Band symmetry, C_1 (1)     point group:

     e(  1 -  1) =     -8.59415  eV     1   --> A              
     e(  2 -  2) =     -8.48355  eV     1   --> A              
     e(  3 -  3) =     -8.47225  eV     1   --> A              
     e(  4 -  4) =     -8.45259  eV     1   --> A              
     e(  5 -  5) =     -8.43817  eV     1   --> A              
     e(  6 -  6) =     -3.94833  eV     1   --> A              
     e(  7 -  7) =     -0.29706  eV     1   --> A              
     e(  8 -  8) =      2.69828  eV     1   --> A              
     e(  9 -  9) =      3.24432  eV     1   --> A              
     e( 10 - 10) =      9.73901  eV     1   --> A              
     e( 11 - 11) =     10.73487  eV     1   --> A              
     e( 12 - 12) =     12.01517  eV     1   --> A              
     e( 13 - 13) =     12.56532  eV     1   --> A              

 **************************************************************************

 **************************************************************************

                    xk=(   0.91250,   0.58750,   0.00000  )

     Band symmetry, C_1 (1)     point group:

     e(  1 -  1) =     -8.59424  eV     1   --> A              
     e(  2 -  2) =     -8.48331  eV     1   --> A              
     e(  3 -  3) =     -8.47238  eV     1   --> A              
     e(  4 -  4) =     -8.45275  eV     1   --> A              
     e(  5 -  5) =     -8.43801  eV     1   --> A              
     e(  6 -  6) =     -3.95447  eV     1   --> A              
     e(  7 -  7) =     -0.29623  eV     1   --> A              
     e(  8 -  8) =      2.67424  eV     1   --> A              
     e(  9 -  9) =      3.31065  eV     1   --> A              
     e( 10 - 10) =      9.55651  eV     1   --> A              
     e( 11 - 11) =     10.72785  eV     1   --> A              
     e( 12 - 12) =     12.15817  eV     1   --> A              
     e( 13 - 13) =     12.67784  eV     1   --> A              

 **************************************************************************

 **************************************************************************

                    xk=(   0.90000,   0.60000,   0.00000  )

     Band symmetry, C_1 (1)     point group:

     e(  1 -  1) =     -8.59433  eV     1   --> A              
     e(  2 -  2) =     -8.48304  eV     1   --> A              
     e(  3 -  3) =     -8.47252  eV     1   --> A              
     e(  4 -  4) =     -8.45292  eV     1   --> A              
     e(  5 -  5) =     -8.43785  eV     1   --> A              
     e(  6 -  6) =     -3.96083  eV     1   --> A              
     e(  7 -  7) =     -0.29561  eV     1   --> A              
     e(  8 -  8) =      2.65139  eV     1   --> A              
     e(  9 -  9) =      3.38029  eV     1   --> A              
     e( 10 - 10) =      9.37720  eV     1   --> A              
     e( 11 - 11) =     10.71986  eV     1   --> A              
     e( 12 - 12) =     12.30449  eV     1   --> A              
     e( 13 - 13) =     12.79539  eV     1   --> A              

 **************************************************************************

 **************************************************************************

                    xk=(   0.88750,   0.61250,   0.00000  )

     Band symmetry, C_1 (1)     point group:

     e(  1 -  1) =     -8.59443  eV     1   --> A              
     e(  2 -  2) =     -8.48275  eV     1   --> A              
     e(  3 -  3) =     -8.47268  eV     1   --> A              
     e(  4 -  4) =     -8.45310  eV     1   --> A              
     e(  5 -  5) =     -8.43769  eV     1   --> A              
     e(  6 -  6) =     -3.96727  eV     1   --> A              
     e(  7 -  7) =     -0.29522  eV     1   --> A              
     e(  8 -  8) =      2.62994  eV     1   --> A              
     e(  9 -  9) =      3.45213  eV     1   --> A              
     e( 10 - 10) =      9.20312  eV     1   --> A              
     e( 11 - 11) =     10.71112  eV     1   --> A              
     e( 12 - 12) =     12.45333  eV     1   --> A              
     e( 13 - 13) =     12.91610  eV     1   --> A              

 **************************************************************************

 **************************************************************************

                    xk=(   0.87500,   0.62500,   0.00000  )

     Band symmetry, C_1 (1)     point group:

     e(  1 -  1) =     -8.59453  eV     1   --> A              
     e(  2 -  2) =     -8.48244  eV     1   --> A              
     e(  3 -  3) =     -8.47284  eV     1   --> A              
     e(  4 -  4) =     -8.45328  eV     1   --> A              
     e(  5 -  5) =     -8.43752  eV     1   --> A              
     e(  6 -  6) =     -3.97361  eV     1   --> A              
     e(  7 -  7) =     -0.29503  eV     1   --> A              
     e(  8 -  8) =      2.61007  eV     1   --> A              
     e(  9 -  9) =      3.52509  eV     1   --> A              
     e( 10 - 10) =      9.03632  eV     1   --> A              
     e( 11 - 11) =     10.70216  eV     1   --> A              
     e( 12 - 12) =     12.60429  eV     1   --> A              
     e( 13 - 13) =     13.03843  eV     1   --> A              

 **************************************************************************

 **************************************************************************

                    xk=(   0.86250,   0.63750,   0.00000  )

     Band symmetry, C_1 (1)     point group:

     e(  1 -  1) =     -8.59464  eV     1   --> A              
     e(  2 -  2) =     -8.48211  eV     1   --> A              
     e(  3 -  3) =     -8.47302  eV     1   --> A              
     e(  4 -  4) =     -8.45345  eV     1   --> A              
     e(  5 -  5) =     -8.43737  eV     1   --> A              
     e(  6 -  6) =     -3.97971  eV     1   --> A              
     e(  7 -  7) =     -0.29504  eV     1   --> A              
     e(  8 -  8) =      2.59188  eV     1   --> A              
     e(  9 -  9) =      3.59793  eV     1   --> A              
     e( 10 - 10) =      8.87827  eV     1   --> A              
     e( 11 - 11) =     10.69328  eV     1   --> A              
     e( 12 - 12) =     12.75688  eV     1   --> A              
     e( 13 - 13) =     13.16051  eV     1   --> A              

 **************************************************************************

 **************************************************************************

                    xk=(   0.85000,   0.65000,   0.00000  )

     Band symmetry, C_1 (1)     point group:

     e(  1 -  1) =     -8.59474  eV     1   --> A              
     e(  2 -  2) =     -8.48178  eV     1   --> A              
     e(  3 -  3) =     -8.47320  eV     1   --> A              
     e(  4 -  4) =     -8.45362  eV     1   --> A              
     e(  5 -  5) =     -8.43721  eV     1   --> A              
     e(  6 -  6) =     -3.98553  eV     1   --> A              
     e(  7 -  7) =     -0.29520  eV     1   --> A              
     e(  8 -  8) =      2.57545  eV     1   --> A              
     e(  9 -  9) =      3.66933  eV     1   --> A              
     e( 10 - 10) =      8.73021  eV     1   --> A              
     e( 11 - 11) =     10.68455  eV     1   --> A              
     e( 12 - 12) =     12.91045  eV     1   --> A              
     e( 13 - 13) =     13.28068  eV     1   --> A              

 **************************************************************************

 **************************************************************************

                    xk=(   0.83750,   0.66250,   0.00000  )

     Band symmetry, C_1 (1)     point group:

     e(  1 -  1) =     -8.59485  eV     1   --> A              
     e(  2 -  2) =     -8.48145  eV     1   --> A              
     e(  3 -  3) =     -8.47339  eV     1   --> A              
     e(  4 -  4) =     -8.45378  eV     1   --> A              
     e(  5 -  5) =     -8.43707  eV     1   --> A              
     e(  6 -  6) =     -3.99090  eV     1   --> A              
     e(  7 -  7) =     -0.29548  eV     1   --> A              
     e(  8 -  8) =      2.56083  eV     1   --> A              
     e(  9 -  9) =      3.73786  eV     1   --> A              
     e( 10 - 10) =      8.59401  eV     1   --> A              
     e( 11 - 11) =     10.67644  eV     1   --> A              
     e( 12 - 12) =     13.06453  eV     1   --> A              
     e( 13 - 13) =     13.39702  eV     1   --> A              

 **************************************************************************

 **************************************************************************

                    xk=(   0.82500,   0.67500,   0.00000  )

     Band symmetry, C_1 (1)     point group:

     e(  1 -  1) =     -8.59494  eV     1   --> A              
     e(  2 -  2) =     -8.48112  eV     1   --> A              
     e(  3 -  3) =     -8.47358  eV     1   --> A              
     e(  4 -  4) =     -8.45392  eV     1   --> A              
     e(  5 -  5) =     -8.43695  eV     1   --> A              
     e(  6 -  6) =     -3.99573  eV     1   --> A              
     e(  7 -  7) =     -0.29583  eV     1   --> A              
     e(  8 -  8) =      2.54808  eV     1   --> A              
     e(  9 -  9) =      3.80197  eV     1   --> A              
     e( 10 - 10) =      8.47124  eV     1   --> A              
     e( 11 - 11) =     10.66903  eV     1   --> A              
     e( 12 - 12) =     13.21812  eV     1   --> A              
     e( 13 - 13) =     13.50748  eV     1   --> A              

 **************************************************************************

 **************************************************************************

                    xk=(   0.81250,   0.68750,   0.00000  )

     Band symmetry, C_1 (1)     point group:

     e(  1 -  1) =     -8.59503  eV     1   --> A              
     e(  2 -  2) =     -8.48082  eV     1   --> A              
     e(  3 -  3) =     -8.47376  eV     1   --> A              
     e(  4 -  4) =     -8.45405  eV     1   --> A              
     e(  5 -  5) =     -8.43683  eV     1   --> A              
     e(  6 -  6) =     -3.99996  eV     1   --> A              
     e(  7 -  7) =     -0.29621  eV     1   --> A              
     e(  8 -  8) =      2.53723  eV     1   --> A              
     e(  9 -  9) =      3.86007  eV     1   --> A              
     e( 10 - 10) =      8.36350  eV     1   --> A              
     e( 11 - 11) =     10.66254  eV     1   --> A              
     e( 12 - 12) =     13.37002  eV     1   --> A              
     e( 13 - 13) =     13.60997  eV     1   --> A              

 **************************************************************************

 **************************************************************************

                    xk=(   0.80000,   0.70000,   0.00000  )

     Band symmetry, C_1 (1)     point group:

     e(  1 -  1) =     -8.59510  eV     1   --> A              
     e(  2 -  2) =     -8.48054  eV     1   --> A              
     e(  3 -  3) =     -8.47393  eV     1   --> A              
     e(  4 -  4) =     -8.45416  eV     1   --> A              
     e(  5 -  5) =     -8.43674  eV     1   --> A              
     e(  6 -  6) =     -4.00349  eV     1   --> A              
     e(  7 -  7) =     -0.29658  eV     1   --> A              
     e(  8 -  8) =      2.52832  eV     1   --> A              
     e(  9 -  9) =      3.91052  eV     1   --> A              
     e( 10 - 10) =      8.27251  eV     1   --> A              
     e( 11 - 11) =     10.65712  eV     1   --> A              
     e( 12 - 12) =     13.51729  eV     1   --> A              
     e( 13 - 13) =     13.70255  eV     1   --> A              

 **************************************************************************

 **************************************************************************

                    xk=(   0.78750,   0.71250,   0.00000  )

     Band symmetry, C_1 (1)     point group:

     e(  1 -  1) =     -8.59516  eV     1   --> A              
     e(  2 -  2) =     -8.48031  eV     1   --> A              
     e(  3 -  3) =     -8.47408  eV     1   --> A              
     e(  4 -  4) =     -8.45425  eV     1   --> A              
     e(  5 -  5) =     -8.43666  eV     1   --> A              
     e(  6 -  6) =     -4.00631  eV     1   --> A              
     e(  7 -  7) =     -0.29690  eV     1   --> A              
     e(  8 -  8) =      2.52137  eV     1   --> A              
     e(  9 -  9) =      3.95174  eV     1   --> A              
     e( 10 - 10) =      8.19976  eV     1   --> A              
     e( 11 - 11) =     10.65275  eV     1   --> A              
     e( 12 - 12) =     13.65338  eV     1   --> A              
     e( 13 - 13) =     13.78565  eV     1   --> A              

 **************************************************************************

 **************************************************************************

                    xk=(   0.77500,   0.72500,   0.00000  )

     Band symmetry, C_1 (1)     point group:

     e(  1 -  1) =     -8.59521  eV     1   --> A              
     e(  2 -  2) =     -8.48013  eV     1   --> A              
     e(  3 -  3) =     -8.47419  eV     1   --> A              
     e(  4 -  4) =     -8.45432  eV     1   --> A              
     e(  5 -  5) =     -8.43661  eV     1   --> A              
     e(  6 -  6) =     -4.00836  eV     1   --> A              
     e(  7 -  7) =     -0.29716  eV     1   --> A              
     e(  8 -  8) =      2.51638  eV     1   --> A              
     e(  9 -  9) =      3.98234  eV     1   --> A              
     e( 10 - 10) =      8.14654  eV     1   --> A              
     e( 11 - 11) =     10.64958  eV     1   --> A              
     e( 12 - 12) =     13.76120  eV     1   --> A              
     e( 13 - 13) =     13.86604  eV     1   --> A              

 **************************************************************************

 **************************************************************************

                    xk=(   0.76250,   0.73750,   0.00000  )

     Band symmetry, C_1 (1)     point group:

     e(  1 -  1) =     -8.59523  eV     1   --> A              
     e(  2 -  2) =     -8.48002  eV     1   --> A              
     e(  3 -  3) =     -8.47427  eV     1   --> A              
     e(  4 -  4) =     -8.45436  eV     1   --> A              
     e(  5 -  5) =     -8.43658  eV     1   --> A              
     e(  6 -  6) =     -4.00959  eV     1   --> A              
     e(  7 -  7) =     -0.29732  eV     1   --> A              
     e(  8 -  8) =      2.51339  eV     1   --> A              
     e(  9 -  9) =      4.00119  eV     1   --> A              
     e( 10 - 10) =      8.11419  eV     1   --> A              
     e( 11 - 11) =     10.64768  eV     1   --> A              
     e( 12 - 12) =     13.82059  eV     1   --> A              
     e( 13 - 13) =     13.94533  eV     1   --> A              

 **************************************************************************

 **************************************************************************

                    xk=(   0.75000,   0.75000,   0.00000  )

     point group C_s (m)    
     there are  2 classes
     the character table:

       E     s    
A'     1.00  1.00
A''    1.00 -1.00

     the symmetry operations in each class and the name of the first element:

     E        1
                                                                 
     s        2
                                                                 

     Band symmetry, C_s (m)     point group:

     e(  1 -  1) =     -8.59524  eV     1   --> A'             
     e(  2 -  2) =     -8.47998  eV     1   --> A'             
     e(  3 -  3) =     -8.47429  eV     1   --> A''            
     e(  4 -  4) =     -8.45437  eV     1   --> A'             
     e(  5 -  5) =     -8.43656  eV     1   --> A''            
     e(  6 -  6) =     -4.01001  eV     1   --> A'             
     e(  7 -  7) =     -0.29737  eV     1   --> A'             
     e(  8 -  8) =      2.51239  eV     1   --> A'             
     e(  9 -  9) =      4.00755  eV     1   --> A''            
     e( 10 - 10) =      8.10333  eV     1   --> A'             
     e( 11 - 11) =     10.64703  eV     1   --> A'             
     e( 12 - 12) =     13.83819  eV     1   --> A'             
     e( 13 - 13) =     13.98233  eV     1   --> A''            

 **************************************************************************

     BANDS        :      1.52s CPU      2.36s WALL


   This run was terminated on:  18:54:29  22Sep2023            

=------------------------------------------------------------------------------=
   JOB DONE.
=------------------------------------------------------------------------------=
