
     Program PWSCF v.7.1 starts on 22Sep2023 at 18:54:16 

     This program is part of the open-source Quantum ESPRESSO suite
     for quantum simulation of materials; please cite
         "P. Giannozzi et al., J. Phys.:Condens. Matter 21 395502 (2009);
         "P. Giannozzi et al., J. Phys.:Condens. Matter 29 465901 (2017);
         "P. Giannozzi et al., J. Chem. Phys. 152 154105 (2020);
          URL http://www.quantum-espresso.org", 
     in publications or presentations arising from this work. More details at
     http://www.quantum-espresso.org/quote

     Parallel version (MPI & OpenMP), running on      10 processor cores
     Number of MPI processes:                10
     Threads/MPI process:                     1

     MPI processes distributed on     1 nodes
     11665 MiB available memory on the printing compute node when the environment starts

     Waiting for input...
     Reading input from standard input

     Current dimensions of program PWSCF are:
     Max number of different atomic species (ntypx) = 10
     Max number of k-points (npk) =  40000
     Max angular momentum in pseudopotentials (lmaxx) =  4
     Message from routine volume:
     axis vectors are left-handed

     Atomic positions and unit cell read from directory:
     ./work/pwscf.save/

     Message from routine volume:
     axis vectors are left-handed
     file Ga.pbe-dn-kjpaw_psl.1.0.0.UPF: wavefunction(s)  4S renormalized
     Message from routine setup:
     using ibrav=0 with symmetry is DISCOURAGED, use correct ibrav instead

     R & G space division:  proc/nbgrp/npool/nimage =      10
     Subspace diagonalization in iterative solution of the eigenvalue problem:
     a serial algorithm will be used


     Parallelization info
     --------------------
     sticks:   dense  smooth     PW     G-vecs:    dense   smooth      PW
     Min          98      96     28                 2053     2010     313
     Max         102      98     29                 2054     2011     316
     Sum        1003     967    283                20539    20107    3143

     Using Slab Decomposition



     bravais-lattice index     =            0
     lattice parameter (alat)  =      10.8663  a.u.
     unit-cell volume          =     320.7605 (a.u.)^3
     number of atoms/cell      =            2
     number of atomic types    =            2
     number of electrons       =        18.00
     number of Kohn-Sham states=           13
     kinetic-energy cutoff     =      60.0000  Ry
     charge density cutoff     =     244.0000  Ry
     Exchange-correlation= SLA  PW   PBX  PBC
                           (   1   4   3   4   0   0   0)

     celldm(1)=  10.866265  celldm(2)=   0.000000  celldm(3)=   0.000000
     celldm(4)=   0.000000  celldm(5)=   0.000000  celldm(6)=   0.000000

     crystal axes: (cart. coord. in units of alat)
               a(1) = (   0.500000   0.500000   0.000000 )  
               a(2) = (   0.500000   0.000000   0.500000 )  
               a(3) = (   0.000000   0.500000   0.500000 )  

     reciprocal axes: (cart. coord. in units 2 pi/alat)
               b(1) = (  1.000000  1.000000 -1.000000 )  
               b(2) = (  1.000000 -1.000000  1.000000 )  
               b(3) = ( -1.000000  1.000000  1.000000 )  


     PseudoPot. # 1 for As read from file:
     ./../../pseudo/psl100_PBE/As.pbe-n-kjpaw_psl.1.0.0.UPF
     MD5 check sum: f035236696d037f4f9bae96d06791064
     Pseudo is Projector augmented-wave + core cor, Zval =  5.0
     Generated using 'atomic' code by A. Dal Corso  v.7.2
     Shape of augmentation charge: PSQ
     Using radial grid of 1209 points,  4 beta functions with: 
                l(1) =   0
                l(2) =   0
                l(3) =   1
                l(4) =   1
     Q(r) pseudized with 0 coefficients 


     PseudoPot. # 2 for Ga read from file:
     ./../../pseudo/psl100_PBE/Ga.pbe-dn-kjpaw_psl.1.0.0.UPF
     MD5 check sum: af15583c2e69aa0f4fe4277ea0747038
     Pseudo is Projector augmented-wave + core cor, Zval = 13.0
     Generated using 'atomic' code by A. Dal Corso  v.7.2
     Shape of augmentation charge: PSQ
     Using radial grid of 1205 points,  6 beta functions with: 
                l(1) =   0
                l(2) =   0
                l(3) =   1
                l(4) =   1
                l(5) =   2
                l(6) =   2
     Q(r) pseudized with 0 coefficients 


     atomic species   valence    mass     pseudopotential
        As             5.00    74.92100     As( 1.00)
        Ga            13.00    69.72300     Ga( 1.00)

     24 Sym. Ops. (no inversion) found


                                    s                        frac. trans.

      isym =  1     identity                                     

 cryst.   s( 1) = (     1          0          0      )
                  (     0          1          0      )
                  (     0          0          1      )

 cart.    s( 1) = (  1.0000000  0.0000000  0.0000000 )
                  (  0.0000000  1.0000000  0.0000000 )
                  (  0.0000000  0.0000000  1.0000000 )


      isym =  2     180 deg rotation - cart. axis [0,0,1]        

 cryst.   s( 2) = (    -1          0          0      )
                  (    -1          0          1      )
                  (    -1          1          0      )

 cart.    s( 2) = ( -1.0000000  0.0000000  0.0000000 )
                  (  0.0000000 -1.0000000  0.0000000 )
                  (  0.0000000  0.0000000  1.0000000 )


      isym =  3     180 deg rotation - cart. axis [0,1,0]        

 cryst.   s( 3) = (     0         -1          1      )
                  (     0         -1          0      )
                  (     1         -1          0      )

 cart.    s( 3) = ( -1.0000000  0.0000000  0.0000000 )
                  (  0.0000000  1.0000000  0.0000000 )
                  (  0.0000000  0.0000000 -1.0000000 )


      isym =  4     180 deg rotation - cart. axis [1,0,0]        

 cryst.   s( 4) = (     0          1         -1      )
                  (     1          0         -1      )
                  (     0          0         -1      )

 cart.    s( 4) = (  1.0000000  0.0000000  0.0000000 )
                  (  0.0000000 -1.0000000  0.0000000 )
                  (  0.0000000  0.0000000 -1.0000000 )


      isym =  5     120 deg rotation - cart. axis [-1,-1,-1]     

 cryst.   s( 5) = (     0          1          0      )
                  (     0          0          1      )
                  (     1          0          0      )

 cart.    s( 5) = (  0.0000000  1.0000000  0.0000000 )
                  (  0.0000000  0.0000000  1.0000000 )
                  (  1.0000000  0.0000000  0.0000000 )


      isym =  6     120 deg rotation - cart. axis [-1,1,1]       

 cryst.   s( 6) = (     0         -1          0      )
                  (     1         -1          0      )
                  (     0         -1          1      )

 cart.    s( 6) = (  0.0000000 -1.0000000  0.0000000 )
                  (  0.0000000  0.0000000  1.0000000 )
                  ( -1.0000000  0.0000000  0.0000000 )


      isym =  7     120 deg rotation - cart. axis [1,1,-1]       

 cryst.   s( 7) = (     1          0         -1      )
                  (     0          0         -1      )
                  (     0          1         -1      )

 cart.    s( 7) = (  0.0000000  1.0000000  0.0000000 )
                  (  0.0000000  0.0000000 -1.0000000 )
                  ( -1.0000000  0.0000000  0.0000000 )


      isym =  8     120 deg rotation - cart. axis [1,-1,1]       

 cryst.   s( 8) = (    -1          0          1      )
                  (    -1          1          0      )
                  (    -1          0          0      )

 cart.    s( 8) = (  0.0000000 -1.0000000  0.0000000 )
                  (  0.0000000  0.0000000 -1.0000000 )
                  (  1.0000000  0.0000000  0.0000000 )


      isym =  9     120 deg rotation - cart. axis [1,1,1]        

 cryst.   s( 9) = (     0          0          1      )
                  (     1          0          0      )
                  (     0          1          0      )

 cart.    s( 9) = (  0.0000000  0.0000000  1.0000000 )
                  (  1.0000000  0.0000000  0.0000000 )
                  (  0.0000000  1.0000000  0.0000000 )


      isym = 10     120 deg rotation - cart. axis [-1,1,-1]      

 cryst.   s(10) = (     0          0         -1      )
                  (     0          1         -1      )
                  (     1          0         -1      )

 cart.    s(10) = (  0.0000000  0.0000000  1.0000000 )
                  ( -1.0000000  0.0000000  0.0000000 )
                  (  0.0000000 -1.0000000  0.0000000 )


      isym = 11     120 deg rotation - cart. axis [1,-1,-1]      

 cryst.   s(11) = (    -1          1          0      )
                  (    -1          0          0      )
                  (    -1          0          1      )

 cart.    s(11) = (  0.0000000  0.0000000 -1.0000000 )
                  ( -1.0000000  0.0000000  0.0000000 )
                  (  0.0000000  1.0000000  0.0000000 )


      isym = 12     120 deg rotation - cart. axis [-1,-1,1]      

 cryst.   s(12) = (     1         -1          0      )
                  (     0         -1          1      )
                  (     0         -1          0      )

 cart.    s(12) = (  0.0000000  0.0000000 -1.0000000 )
                  (  1.0000000  0.0000000  0.0000000 )
                  (  0.0000000 -1.0000000  0.0000000 )


      isym = 13     inv. 180 deg rotation - cart. axis [1,1,0]   

 cryst.   s(13) = (    -1          0          0      )
                  (    -1          1          0      )
                  (    -1          0          1      )

 cart.    s(13) = (  0.0000000 -1.0000000  0.0000000 )
                  ( -1.0000000  0.0000000  0.0000000 )
                  (  0.0000000  0.0000000  1.0000000 )


      isym = 14     inv. 180 deg rotation - cart. axis [1,-1,0]  

 cryst.   s(14) = (     1          0          0      )
                  (     0          0          1      )
                  (     0          1          0      )

 cart.    s(14) = (  0.0000000  1.0000000  0.0000000 )
                  (  1.0000000  0.0000000  0.0000000 )
                  (  0.0000000  0.0000000  1.0000000 )


      isym = 15     inv.  90 deg rotation - cart. axis [0,0,-1]  

 cryst.   s(15) = (     0         -1          1      )
                  (     1         -1          0      )
                  (     0         -1          0      )

 cart.    s(15) = (  0.0000000 -1.0000000  0.0000000 )
                  (  1.0000000  0.0000000  0.0000000 )
                  (  0.0000000  0.0000000 -1.0000000 )


      isym = 16     inv.  90 deg rotation - cart. axis [0,0,1]   

 cryst.   s(16) = (     0          1         -1      )
                  (     0          0         -1      )
                  (     1          0         -1      )

 cart.    s(16) = (  0.0000000  1.0000000  0.0000000 )
                  ( -1.0000000  0.0000000  0.0000000 )
                  (  0.0000000  0.0000000 -1.0000000 )


      isym = 17     inv. 180 deg rotation - cart. axis [1,0,1]   

 cryst.   s(17) = (     1         -1          0      )
                  (     0         -1          0      )
                  (     0         -1          1      )

 cart.    s(17) = (  0.0000000  0.0000000 -1.0000000 )
                  (  0.0000000  1.0000000  0.0000000 )
                  ( -1.0000000  0.0000000  0.0000000 )


      isym = 18     inv. 180 deg rotation - cart. axis [-1,0,1]  

 cryst.   s(18) = (     0          0          1      )
                  (     0          1          0      )
                  (     1          0          0      )

 cart.    s(18) = (  0.0000000  0.0000000  1.0000000 )
                  (  0.0000000  1.0000000  0.0000000 )
                  (  1.0000000  0.0000000  0.0000000 )


      isym = 19     inv.  90 deg rotation - cart. axis [0,1,0]   

 cryst.   s(19) = (    -1          1          0      )
                  (    -1          0          1      )
                  (    -1          0          0      )

 cart.    s(19) = (  0.0000000  0.0000000 -1.0000000 )
                  (  0.0000000 -1.0000000  0.0000000 )
                  (  1.0000000  0.0000000  0.0000000 )


      isym = 20     inv.  90 deg rotation - cart. axis [0,-1,0]  

 cryst.   s(20) = (     0          0         -1      )
                  (     1          0         -1      )
                  (     0          1         -1      )

 cart.    s(20) = (  0.0000000  0.0000000  1.0000000 )
                  (  0.0000000 -1.0000000  0.0000000 )
                  ( -1.0000000  0.0000000  0.0000000 )


      isym = 21     inv. 180 deg rotation - cart. axis [0,1,1]   

 cryst.   s(21) = (     1          0         -1      )
                  (     0          1         -1      )
                  (     0          0         -1      )

 cart.    s(21) = (  1.0000000  0.0000000  0.0000000 )
                  (  0.0000000  0.0000000 -1.0000000 )
                  (  0.0000000 -1.0000000  0.0000000 )


      isym = 22     inv. 180 deg rotation - cart. axis [0,1,-1]  

 cryst.   s(22) = (     0          1          0      )
                  (     1          0          0      )
                  (     0          0          1      )

 cart.    s(22) = (  1.0000000  0.0000000  0.0000000 )
                  (  0.0000000  0.0000000  1.0000000 )
                  (  0.0000000  1.0000000  0.0000000 )


      isym = 23     inv.  90 deg rotation - cart. axis [-1,0,0]  

 cryst.   s(23) = (    -1          0          1      )
                  (    -1          0          0      )
                  (    -1          1          0      )

 cart.    s(23) = ( -1.0000000  0.0000000  0.0000000 )
                  (  0.0000000  0.0000000 -1.0000000 )
                  (  0.0000000  1.0000000  0.0000000 )


      isym = 24     inv.  90 deg rotation - cart. axis [1,0,0]   

 cryst.   s(24) = (     0         -1          0      )
                  (     0         -1          1      )
                  (     1         -1          0      )

 cart.    s(24) = ( -1.0000000  0.0000000  0.0000000 )
                  (  0.0000000  0.0000000  1.0000000 )
                  (  0.0000000 -1.0000000  0.0000000 )


   Cartesian axes

     site n.     atom                  positions (alat units)
         1           As  tau(   1) = (   0.2500000   0.2500000   0.2500000  )
         2           Ga  tau(   2) = (   0.0000000   0.0000000   0.0000000  )

   Crystallographic axes

     site n.     atom                  positions (cryst. coord.)
         1           As  tau(   1) = (  0.2500000  0.2500000  0.2500000  )
         2           Ga  tau(   2) = (  0.0000000  0.0000000  0.0000000  )

     number of k points=   101  Methfessel-Paxton smearing, width (Ry)=  0.0100
                       cart. coord. in units 2pi/alat
        k(    1) = (   0.0000000   1.0000000   0.5000000), wk =   0.0198020
        k(    2) = (   0.0250000   0.9250000   0.5000000), wk =   0.0198020
        k(    3) = (   0.0500000   0.8500000   0.5000000), wk =   0.0198020
        k(    4) = (   0.0750000   0.7750000   0.5000000), wk =   0.0198020
        k(    5) = (   0.1000000   0.7000000   0.5000000), wk =   0.0198020
        k(    6) = (   0.1250000   0.6250000   0.5000000), wk =   0.0198020
        k(    7) = (   0.1500000   0.5500000   0.5000000), wk =   0.0198020
        k(    8) = (   0.1750000   0.4750000   0.5000000), wk =   0.0198020
        k(    9) = (   0.2000000   0.4000000   0.5000000), wk =   0.0198020
        k(   10) = (   0.2250000   0.3250000   0.5000000), wk =   0.0198020
        k(   11) = (   0.2500000   0.2500000   0.5000000), wk =   0.0198020
        k(   12) = (   0.2750000   0.1750000   0.5000000), wk =   0.0198020
        k(   13) = (   0.3000000   0.1000000   0.5000000), wk =   0.0198020
        k(   14) = (   0.3250000   0.0250000   0.5000000), wk =   0.0198020
        k(   15) = (   0.3500000  -0.0500000   0.5000000), wk =   0.0198020
        k(   16) = (   0.3750000  -0.1250000   0.5000000), wk =   0.0198020
        k(   17) = (   0.4000000  -0.2000000   0.5000000), wk =   0.0198020
        k(   18) = (   0.4250000  -0.2750000   0.5000000), wk =   0.0198020
        k(   19) = (   0.4500000  -0.3500000   0.5000000), wk =   0.0198020
        k(   20) = (   0.4750000  -0.4250000   0.5000000), wk =   0.0198020
        k(   21) = (   0.5000000  -0.5000000   0.5000000), wk =   0.0198020
        k(   22) = (   0.4750000  -0.4750000   0.4750000), wk =   0.0198020
        k(   23) = (   0.4500000  -0.4500000   0.4500000), wk =   0.0198020
        k(   24) = (   0.4250000  -0.4250000   0.4250000), wk =   0.0198020
        k(   25) = (   0.4000000  -0.4000000   0.4000000), wk =   0.0198020
        k(   26) = (   0.3750000  -0.3750000   0.3750000), wk =   0.0198020
        k(   27) = (   0.3500000  -0.3500000   0.3500000), wk =   0.0198020
        k(   28) = (   0.3250000  -0.3250000   0.3250000), wk =   0.0198020
        k(   29) = (   0.3000000  -0.3000000   0.3000000), wk =   0.0198020
        k(   30) = (   0.2750000  -0.2750000   0.2750000), wk =   0.0198020
        k(   31) = (   0.2500000  -0.2500000   0.2500000), wk =   0.0198020
        k(   32) = (   0.2250000  -0.2250000   0.2250000), wk =   0.0198020
        k(   33) = (   0.2000000  -0.2000000   0.2000000), wk =   0.0198020
        k(   34) = (   0.1750000  -0.1750000   0.1750000), wk =   0.0198020
        k(   35) = (   0.1500000  -0.1500000   0.1500000), wk =   0.0198020
        k(   36) = (   0.1250000  -0.1250000   0.1250000), wk =   0.0198020
        k(   37) = (   0.1000000  -0.1000000   0.1000000), wk =   0.0198020
        k(   38) = (   0.0750000  -0.0750000   0.0750000), wk =   0.0198020
        k(   39) = (   0.0500000  -0.0500000   0.0500000), wk =   0.0198020
        k(   40) = (   0.0250000  -0.0250000   0.0250000), wk =   0.0198020
        k(   41) = (   0.0000000   0.0000000   0.0000000), wk =   0.0198020
        k(   42) = (   0.0000000   0.0000000   0.0500000), wk =   0.0198020
        k(   43) = (   0.0000000   0.0000000   0.1000000), wk =   0.0198020
        k(   44) = (   0.0000000   0.0000000   0.1500000), wk =   0.0198020
        k(   45) = (   0.0000000   0.0000000   0.2000000), wk =   0.0198020
        k(   46) = (   0.0000000   0.0000000   0.2500000), wk =   0.0198020
        k(   47) = (   0.0000000   0.0000000   0.3000000), wk =   0.0198020
        k(   48) = (   0.0000000   0.0000000   0.3500000), wk =   0.0198020
        k(   49) = (   0.0000000   0.0000000   0.4000000), wk =   0.0198020
        k(   50) = (   0.0000000   0.0000000   0.4500000), wk =   0.0198020
        k(   51) = (   0.0000000   0.0000000   0.5000000), wk =   0.0198020
        k(   52) = (   0.0000000   0.0000000   0.5500000), wk =   0.0198020
        k(   53) = (   0.0000000   0.0000000   0.6000000), wk =   0.0198020
        k(   54) = (   0.0000000   0.0000000   0.6500000), wk =   0.0198020
        k(   55) = (   0.0000000   0.0000000   0.7000000), wk =   0.0198020
        k(   56) = (   0.0000000   0.0000000   0.7500000), wk =   0.0198020
        k(   57) = (   0.0000000   0.0000000   0.8000000), wk =   0.0198020
        k(   58) = (   0.0000000   0.0000000   0.8500000), wk =   0.0198020
        k(   59) = (   0.0000000   0.0000000   0.9000000), wk =   0.0198020
        k(   60) = (   0.0000000   0.0000000   0.9500000), wk =   0.0198020
        k(   61) = (   0.0000000   0.0000000   1.0000000), wk =   0.0198020
        k(   62) = (   0.0500000   0.0250000   0.9500000), wk =   0.0198020
        k(   63) = (   0.1000000   0.0500000   0.9000000), wk =   0.0198020
        k(   64) = (   0.1500000   0.0750000   0.8500000), wk =   0.0198020
        k(   65) = (   0.2000000   0.1000000   0.8000000), wk =   0.0198020
        k(   66) = (   0.2500000   0.1250000   0.7500000), wk =   0.0198020
        k(   67) = (   0.3000000   0.1500000   0.7000000), wk =   0.0198020
        k(   68) = (   0.3500000   0.1750000   0.6500000), wk =   0.0198020
        k(   69) = (   0.4000000   0.2000000   0.6000000), wk =   0.0198020
        k(   70) = (   0.4500000   0.2250000   0.5500000), wk =   0.0198020
        k(   71) = (   0.5000000   0.2500000   0.5000000), wk =   0.0198020
        k(   72) = (   0.5500000   0.2750000   0.4500000), wk =   0.0198020
        k(   73) = (   0.6000000   0.3000000   0.4000000), wk =   0.0198020
        k(   74) = (   0.6500000   0.3250000   0.3500000), wk =   0.0198020
        k(   75) = (   0.7000000   0.3500000   0.3000000), wk =   0.0198020
        k(   76) = (   0.7500000   0.3750000   0.2500000), wk =   0.0198020
        k(   77) = (   0.8000000   0.4000000   0.2000000), wk =   0.0198020
        k(   78) = (   0.8500000   0.4250000   0.1500000), wk =   0.0198020
        k(   79) = (   0.9000000   0.4500000   0.1000000), wk =   0.0198020
        k(   80) = (   0.9500000   0.4750000   0.0500000), wk =   0.0198020
        k(   81) = (   1.0000000   0.5000000   0.0000000), wk =   0.0198020
        k(   82) = (   0.9875000   0.5125000   0.0000000), wk =   0.0198020
        k(   83) = (   0.9750000   0.5250000   0.0000000), wk =   0.0198020
        k(   84) = (   0.9625000   0.5375000   0.0000000), wk =   0.0198020
        k(   85) = (   0.9500000   0.5500000   0.0000000), wk =   0.0198020
        k(   86) = (   0.9375000   0.5625000   0.0000000), wk =   0.0198020
        k(   87) = (   0.9250000   0.5750000   0.0000000), wk =   0.0198020
        k(   88) = (   0.9125000   0.5875000   0.0000000), wk =   0.0198020
        k(   89) = (   0.9000000   0.6000000   0.0000000), wk =   0.0198020
        k(   90) = (   0.8875000   0.6125000   0.0000000), wk =   0.0198020
        k(   91) = (   0.8750000   0.6250000   0.0000000), wk =   0.0198020
        k(   92) = (   0.8625000   0.6375000   0.0000000), wk =   0.0198020
        k(   93) = (   0.8500000   0.6500000   0.0000000), wk =   0.0198020
        k(   94) = (   0.8375000   0.6625000   0.0000000), wk =   0.0198020
        k(   95) = (   0.8250000   0.6750000   0.0000000), wk =   0.0198020
        k(   96) = (   0.8125000   0.6875000   0.0000000), wk =   0.0198020
        k(   97) = (   0.8000000   0.7000000   0.0000000), wk =   0.0198020
        k(   98) = (   0.7875000   0.7125000   0.0000000), wk =   0.0198020
        k(   99) = (   0.7750000   0.7250000   0.0000000), wk =   0.0198020
        k(  100) = (   0.7625000   0.7375000   0.0000000), wk =   0.0198020
        k(  101) = (   0.7500000   0.7500000   0.0000000), wk =   0.0198020

                       cryst. coord.
        k(    1) = (   0.5000000   0.2500000   0.7500000), wk =   0.0198020
        k(    2) = (   0.4750000   0.2625000   0.7125000), wk =   0.0198020
        k(    3) = (   0.4500000   0.2750000   0.6750000), wk =   0.0198020
        k(    4) = (   0.4250000   0.2875000   0.6375000), wk =   0.0198020
        k(    5) = (   0.4000000   0.3000000   0.6000000), wk =   0.0198020
        k(    6) = (   0.3750000   0.3125000   0.5625000), wk =   0.0198020
        k(    7) = (   0.3500000   0.3250000   0.5250000), wk =   0.0198020
        k(    8) = (   0.3250000   0.3375000   0.4875000), wk =   0.0198020
        k(    9) = (   0.3000000   0.3500000   0.4500000), wk =   0.0198020
        k(   10) = (   0.2750000   0.3625000   0.4125000), wk =   0.0198020
        k(   11) = (   0.2500000   0.3750000   0.3750000), wk =   0.0198020
        k(   12) = (   0.2250000   0.3875000   0.3375000), wk =   0.0198020
        k(   13) = (   0.2000000   0.4000000   0.3000000), wk =   0.0198020
        k(   14) = (   0.1750000   0.4125000   0.2625000), wk =   0.0198020
        k(   15) = (   0.1500000   0.4250000   0.2250000), wk =   0.0198020
        k(   16) = (   0.1250000   0.4375000   0.1875000), wk =   0.0198020
        k(   17) = (   0.1000000   0.4500000   0.1500000), wk =   0.0198020
        k(   18) = (   0.0750000   0.4625000   0.1125000), wk =   0.0198020
        k(   19) = (   0.0500000   0.4750000   0.0750000), wk =   0.0198020
        k(   20) = (   0.0250000   0.4875000   0.0375000), wk =   0.0198020
        k(   21) = (   0.0000000   0.5000000   0.0000000), wk =   0.0198020
        k(   22) = (   0.0000000   0.4750000   0.0000000), wk =   0.0198020
        k(   23) = (   0.0000000   0.4500000   0.0000000), wk =   0.0198020
        k(   24) = (   0.0000000   0.4250000   0.0000000), wk =   0.0198020
        k(   25) = (   0.0000000   0.4000000   0.0000000), wk =   0.0198020
        k(   26) = (   0.0000000   0.3750000   0.0000000), wk =   0.0198020
        k(   27) = (   0.0000000   0.3500000   0.0000000), wk =   0.0198020
        k(   28) = (   0.0000000   0.3250000   0.0000000), wk =   0.0198020
        k(   29) = (   0.0000000   0.3000000   0.0000000), wk =   0.0198020
        k(   30) = (   0.0000000   0.2750000   0.0000000), wk =   0.0198020
        k(   31) = (   0.0000000   0.2500000   0.0000000), wk =   0.0198020
        k(   32) = (   0.0000000   0.2250000   0.0000000), wk =   0.0198020
        k(   33) = (   0.0000000   0.2000000   0.0000000), wk =   0.0198020
        k(   34) = (   0.0000000   0.1750000   0.0000000), wk =   0.0198020
        k(   35) = (   0.0000000   0.1500000   0.0000000), wk =   0.0198020
        k(   36) = (   0.0000000   0.1250000   0.0000000), wk =   0.0198020
        k(   37) = (   0.0000000   0.1000000   0.0000000), wk =   0.0198020
        k(   38) = (   0.0000000   0.0750000   0.0000000), wk =   0.0198020
        k(   39) = (   0.0000000   0.0500000   0.0000000), wk =   0.0198020
        k(   40) = (   0.0000000   0.0250000   0.0000000), wk =   0.0198020
        k(   41) = (   0.0000000   0.0000000   0.0000000), wk =   0.0198020
        k(   42) = (   0.0000000   0.0250000   0.0250000), wk =   0.0198020
        k(   43) = (   0.0000000   0.0500000   0.0500000), wk =   0.0198020
        k(   44) = (   0.0000000   0.0750000   0.0750000), wk =   0.0198020
        k(   45) = (   0.0000000   0.1000000   0.1000000), wk =   0.0198020
        k(   46) = (   0.0000000   0.1250000   0.1250000), wk =   0.0198020
        k(   47) = (   0.0000000   0.1500000   0.1500000), wk =   0.0198020
        k(   48) = (   0.0000000   0.1750000   0.1750000), wk =   0.0198020
        k(   49) = (   0.0000000   0.2000000   0.2000000), wk =   0.0198020
        k(   50) = (   0.0000000   0.2250000   0.2250000), wk =   0.0198020
        k(   51) = (   0.0000000   0.2500000   0.2500000), wk =   0.0198020
        k(   52) = (   0.0000000   0.2750000   0.2750000), wk =   0.0198020
        k(   53) = (   0.0000000   0.3000000   0.3000000), wk =   0.0198020
        k(   54) = (   0.0000000   0.3250000   0.3250000), wk =   0.0198020
        k(   55) = (   0.0000000   0.3500000   0.3500000), wk =   0.0198020
        k(   56) = (   0.0000000   0.3750000   0.3750000), wk =   0.0198020
        k(   57) = (   0.0000000   0.4000000   0.4000000), wk =   0.0198020
        k(   58) = (   0.0000000   0.4250000   0.4250000), wk =   0.0198020
        k(   59) = (   0.0000000   0.4500000   0.4500000), wk =   0.0198020
        k(   60) = (   0.0000000   0.4750000   0.4750000), wk =   0.0198020
        k(   61) = (   0.0000000   0.5000000   0.5000000), wk =   0.0198020
        k(   62) = (   0.0375000   0.5000000   0.4875000), wk =   0.0198020
        k(   63) = (   0.0750000   0.5000000   0.4750000), wk =   0.0198020
        k(   64) = (   0.1125000   0.5000000   0.4625000), wk =   0.0198020
        k(   65) = (   0.1500000   0.5000000   0.4500000), wk =   0.0198020
        k(   66) = (   0.1875000   0.5000000   0.4375000), wk =   0.0198020
        k(   67) = (   0.2250000   0.5000000   0.4250000), wk =   0.0198020
        k(   68) = (   0.2625000   0.5000000   0.4125000), wk =   0.0198020
        k(   69) = (   0.3000000   0.5000000   0.4000000), wk =   0.0198020
        k(   70) = (   0.3375000   0.5000000   0.3875000), wk =   0.0198020
        k(   71) = (   0.3750000   0.5000000   0.3750000), wk =   0.0198020
        k(   72) = (   0.4125000   0.5000000   0.3625000), wk =   0.0198020
        k(   73) = (   0.4500000   0.5000000   0.3500000), wk =   0.0198020
        k(   74) = (   0.4875000   0.5000000   0.3375000), wk =   0.0198020
        k(   75) = (   0.5250000   0.5000000   0.3250000), wk =   0.0198020
        k(   76) = (   0.5625000   0.5000000   0.3125000), wk =   0.0198020
        k(   77) = (   0.6000000   0.5000000   0.3000000), wk =   0.0198020
        k(   78) = (   0.6375000   0.5000000   0.2875000), wk =   0.0198020
        k(   79) = (   0.6750000   0.5000000   0.2750000), wk =   0.0198020
        k(   80) = (   0.7125000   0.5000000   0.2625000), wk =   0.0198020
        k(   81) = (   0.7500000   0.5000000   0.2500000), wk =   0.0198020
        k(   82) = (   0.7500000   0.4937500   0.2562500), wk =   0.0198020
        k(   83) = (   0.7500000   0.4875000   0.2625000), wk =   0.0198020
        k(   84) = (   0.7500000   0.4812500   0.2687500), wk =   0.0198020
        k(   85) = (   0.7500000   0.4750000   0.2750000), wk =   0.0198020
        k(   86) = (   0.7500000   0.4687500   0.2812500), wk =   0.0198020
        k(   87) = (   0.7500000   0.4625000   0.2875000), wk =   0.0198020
        k(   88) = (   0.7500000   0.4562500   0.2937500), wk =   0.0198020
        k(   89) = (   0.7500000   0.4500000   0.3000000), wk =   0.0198020
        k(   90) = (   0.7500000   0.4437500   0.3062500), wk =   0.0198020
        k(   91) = (   0.7500000   0.4375000   0.3125000), wk =   0.0198020
        k(   92) = (   0.7500000   0.4312500   0.3187500), wk =   0.0198020
        k(   93) = (   0.7500000   0.4250000   0.3250000), wk =   0.0198020
        k(   94) = (   0.7500000   0.4187500   0.3312500), wk =   0.0198020
        k(   95) = (   0.7500000   0.4125000   0.3375000), wk =   0.0198020
        k(   96) = (   0.7500000   0.4062500   0.3437500), wk =   0.0198020
        k(   97) = (   0.7500000   0.4000000   0.3500000), wk =   0.0198020
        k(   98) = (   0.7500000   0.3937500   0.3562500), wk =   0.0198020
        k(   99) = (   0.7500000   0.3875000   0.3625000), wk =   0.0198020
        k(  100) = (   0.7500000   0.3812500   0.3687500), wk =   0.0198020
        k(  101) = (   0.7500000   0.3750000   0.3750000), wk =   0.0198020

     Dense  grid:    20539 G-vectors     FFT dimensions: (  40,  40,  40)

     Smooth grid:    20107 G-vectors     FFT dimensions: (  40,  40,  40)

     Dynamical RAM for                 wfc:       0.05 MB

     Dynamical RAM for     wfc (w. buffer):       5.08 MB

     Dynamical RAM for           str. fact:       0.06 MB

     Dynamical RAM for           local pot:       0.00 MB

     Dynamical RAM for          nlocal pot:       0.10 MB

     Dynamical RAM for                qrad:       2.51 MB

     Dynamical RAM for          rho,v,vnew:       0.24 MB

     Dynamical RAM for           G-vectors:       0.13 MB

     Dynamical RAM for          h,s,v(r/c):       0.03 MB

     Dynamical RAM for          <psi|beta>:       0.01 MB

     Dynamical RAM for                 psi:       0.10 MB

     Dynamical RAM for                hpsi:       0.10 MB

     Dynamical RAM for                spsi:       0.10 MB

     Dynamical RAM for      wfcinit/wfcrot:       0.10 MB

     Dynamical RAM for           addusdens:       5.86 MB

     Estimated static dynamical RAM per process >       8.46 MB

     Estimated max dynamical RAM per process >      14.32 MB

     Estimated total dynamical RAM >     143.22 MB

     The potential is recalculated from file :
     ./work/pwscf.save/charge-density

     Starting wfcs are   13 randomized atomic wfcs
     Checking if some PAW data can be deallocated... 
       PAW data deallocated on    5 nodes for type:  1
       PAW data deallocated on    5 nodes for type:  2

     Band Structure Calculation
     Davidson diagonalization with overlap

     Computing kpt #:     1  of   101
     total cpu time spent up to now is        0.8 secs

     Computing kpt #:     2  of   101
     total cpu time spent up to now is        0.8 secs

     Computing kpt #:     3  of   101
     total cpu time spent up to now is        0.9 secs

     Computing kpt #:     4  of   101
     total cpu time spent up to now is        1.0 secs

     Computing kpt #:     5  of   101
     total cpu time spent up to now is        1.1 secs

     Computing kpt #:     6  of   101
     total cpu time spent up to now is        1.2 secs

     Computing kpt #:     7  of   101
     total cpu time spent up to now is        1.3 secs

     Computing kpt #:     8  of   101
     total cpu time spent up to now is        1.4 secs

     Computing kpt #:     9  of   101
     total cpu time spent up to now is        1.5 secs

     Computing kpt #:    10  of   101
     total cpu time spent up to now is        1.6 secs

     Computing kpt #:    11  of   101
     total cpu time spent up to now is        1.6 secs

     Computing kpt #:    12  of   101
     total cpu time spent up to now is        1.7 secs

     Computing kpt #:    13  of   101
     total cpu time spent up to now is        1.8 secs

     Computing kpt #:    14  of   101
     total cpu time spent up to now is        1.9 secs

     Computing kpt #:    15  of   101
     total cpu time spent up to now is        2.0 secs

     Computing kpt #:    16  of   101
     total cpu time spent up to now is        2.1 secs

     Computing kpt #:    17  of   101
     total cpu time spent up to now is        2.2 secs

     Computing kpt #:    18  of   101
     total cpu time spent up to now is        2.3 secs

     Computing kpt #:    19  of   101
     total cpu time spent up to now is        2.4 secs

     Computing kpt #:    20  of   101
     total cpu time spent up to now is        2.5 secs

     Computing kpt #:    21  of   101
     total cpu time spent up to now is        2.6 secs

     Computing kpt #:    22  of   101
     total cpu time spent up to now is        2.6 secs

     Computing kpt #:    23  of   101
     total cpu time spent up to now is        2.7 secs

     Computing kpt #:    24  of   101
     total cpu time spent up to now is        2.8 secs

     Computing kpt #:    25  of   101
     total cpu time spent up to now is        2.9 secs

     Computing kpt #:    26  of   101
     total cpu time spent up to now is        3.0 secs

     Computing kpt #:    27  of   101
     total cpu time spent up to now is        3.1 secs

     Computing kpt #:    28  of   101
     total cpu time spent up to now is        3.1 secs

     Computing kpt #:    29  of   101
     total cpu time spent up to now is        3.2 secs

     Computing kpt #:    30  of   101
     total cpu time spent up to now is        3.3 secs

     Computing kpt #:    31  of   101
     total cpu time spent up to now is        3.4 secs

     Computing kpt #:    32  of   101
     total cpu time spent up to now is        3.5 secs

     Computing kpt #:    33  of   101
     total cpu time spent up to now is        3.5 secs

     Computing kpt #:    34  of   101
     total cpu time spent up to now is        3.6 secs

     Computing kpt #:    35  of   101
     total cpu time spent up to now is        3.7 secs

     Computing kpt #:    36  of   101
     total cpu time spent up to now is        3.8 secs

     Computing kpt #:    37  of   101
     total cpu time spent up to now is        3.8 secs

     Computing kpt #:    38  of   101
     total cpu time spent up to now is        3.9 secs

     Computing kpt #:    39  of   101
     total cpu time spent up to now is        4.0 secs

     Computing kpt #:    40  of   101
     total cpu time spent up to now is        4.1 secs

     Computing kpt #:    41  of   101
     total cpu time spent up to now is        4.1 secs

     Computing kpt #:    42  of   101
     total cpu time spent up to now is        4.2 secs

     Computing kpt #:    43  of   101
     total cpu time spent up to now is        4.2 secs

     Computing kpt #:    44  of   101
     total cpu time spent up to now is        4.3 secs

     Computing kpt #:    45  of   101
     total cpu time spent up to now is        4.4 secs

     Computing kpt #:    46  of   101
     total cpu time spent up to now is        4.4 secs

     Computing kpt #:    47  of   101
     total cpu time spent up to now is        4.5 secs

     Computing kpt #:    48  of   101
     total cpu time spent up to now is        4.6 secs

     Computing kpt #:    49  of   101
     total cpu time spent up to now is        4.7 secs

     Computing kpt #:    50  of   101
     total cpu time spent up to now is        4.7 secs

     Computing kpt #:    51  of   101
     total cpu time spent up to now is        4.8 secs

     Computing kpt #:    52  of   101
     total cpu time spent up to now is        4.9 secs

     Computing kpt #:    53  of   101
     total cpu time spent up to now is        5.0 secs

     Computing kpt #:    54  of   101
     total cpu time spent up to now is        5.0 secs

     Computing kpt #:    55  of   101
     total cpu time spent up to now is        5.1 secs

     Computing kpt #:    56  of   101
     total cpu time spent up to now is        5.2 secs

     Computing kpt #:    57  of   101
     total cpu time spent up to now is        5.2 secs

     Computing kpt #:    58  of   101
     total cpu time spent up to now is        5.3 secs

     Computing kpt #:    59  of   101
     total cpu time spent up to now is        5.4 secs

     Computing kpt #:    60  of   101
     total cpu time spent up to now is        5.5 secs

     Computing kpt #:    61  of   101
     total cpu time spent up to now is        5.5 secs

     Computing kpt #:    62  of   101
     total cpu time spent up to now is        5.6 secs

     Computing kpt #:    63  of   101
     total cpu time spent up to now is        5.7 secs

     Computing kpt #:    64  of   101
     total cpu time spent up to now is        5.8 secs

     Computing kpt #:    65  of   101
     total cpu time spent up to now is        5.9 secs

     Computing kpt #:    66  of   101
     total cpu time spent up to now is        5.9 secs

     Computing kpt #:    67  of   101
     total cpu time spent up to now is        6.0 secs

     Computing kpt #:    68  of   101
     total cpu time spent up to now is        6.1 secs

     Computing kpt #:    69  of   101
     total cpu time spent up to now is        6.2 secs

     Computing kpt #:    70  of   101
     total cpu time spent up to now is        6.3 secs

     Computing kpt #:    71  of   101
     total cpu time spent up to now is        6.4 secs

     Computing kpt #:    72  of   101
     total cpu time spent up to now is        6.4 secs

     Computing kpt #:    73  of   101
     total cpu time spent up to now is        6.5 secs

     Computing kpt #:    74  of   101
     total cpu time spent up to now is        6.6 secs

     Computing kpt #:    75  of   101
     total cpu time spent up to now is        6.7 secs

     Computing kpt #:    76  of   101
     total cpu time spent up to now is        6.8 secs

     Computing kpt #:    77  of   101
     total cpu time spent up to now is        6.8 secs

     Computing kpt #:    78  of   101
     total cpu time spent up to now is        6.9 secs

     Computing kpt #:    79  of   101
     total cpu time spent up to now is        7.0 secs

     Computing kpt #:    80  of   101
     total cpu time spent up to now is        7.0 secs

     Computing kpt #:    81  of   101
     total cpu time spent up to now is        7.1 secs

     Computing kpt #:    82  of   101
     total cpu time spent up to now is        7.2 secs

     Computing kpt #:    83  of   101
     total cpu time spent up to now is        7.2 secs

     Computing kpt #:    84  of   101
     total cpu time spent up to now is        7.3 secs

     Computing kpt #:    85  of   101
     total cpu time spent up to now is        7.4 secs

     Computing kpt #:    86  of   101
     total cpu time spent up to now is        7.5 secs

     Computing kpt #:    87  of   101
     total cpu time spent up to now is        7.5 secs

     Computing kpt #:    88  of   101
     total cpu time spent up to now is        7.6 secs

     Computing kpt #:    89  of   101
     total cpu time spent up to now is        7.7 secs

     Computing kpt #:    90  of   101
     total cpu time spent up to now is        7.8 secs

     Computing kpt #:    91  of   101
     total cpu time spent up to now is        7.8 secs

     Computing kpt #:    92  of   101
     total cpu time spent up to now is        7.9 secs

     Computing kpt #:    93  of   101
     total cpu time spent up to now is        8.0 secs

     Computing kpt #:    94  of   101
     total cpu time spent up to now is        8.1 secs

     Computing kpt #:    95  of   101
     total cpu time spent up to now is        8.2 secs

     Computing kpt #:    96  of   101
     total cpu time spent up to now is        8.2 secs

     Computing kpt #:    97  of   101
     total cpu time spent up to now is        8.3 secs

     Computing kpt #:    98  of   101
     total cpu time spent up to now is        8.4 secs

     Computing kpt #:    99  of   101
     total cpu time spent up to now is        8.5 secs

     Computing kpt #:   100  of   101
     total cpu time spent up to now is        8.5 secs

     Computing kpt #:   101  of   101
     total cpu time spent up to now is        8.6 secs

     ethr =  8.33E-07,  avg # of iterations = 46.3

     total cpu time spent up to now is        8.6 secs

     End of band structure calculation

          k = 0.0000 1.0000 0.5000 (  2520 PWs)   bands (ev):

    -8.5939  -8.4842  -8.4719  -8.4521  -8.4387  -3.9267  -0.3026   2.8154
     3.0011  10.5078  10.8180  11.3974  12.1510

          k = 0.0250 0.9250 0.5000 (  2509 PWs)   bands (ev):

    -8.5933  -8.4846  -8.4724  -8.4518  -8.4388  -3.9559  -0.2773   2.6957
     3.1966  10.2616  10.9244  11.3862  12.3964

          k = 0.0500 0.8500 0.5000 (  2519 PWs)   bands (ev):

    -8.5915  -8.4855  -8.4741  -8.4509  -8.4391  -4.0386  -0.2076   2.6010
     3.5163   9.8663  10.9050  11.5475  12.9227

          k = 0.0750 0.7750 0.5000 (  2516 PWs)   bands (ev):

    -8.5888  -8.4867  -8.4769  -8.4495  -8.4395  -4.1622  -0.1085   2.6042
     3.8772   9.4685  10.8355  11.8100  13.5298

          k = 0.1000 0.7000 0.5000 (  2511 PWs)   bands (ev):

    -8.5852  -8.4881  -8.4805  -8.4476  -8.4401  -4.3109   0.0048   2.7142
     4.2482   9.1095  10.8000  12.0495  13.6093

          k = 0.1250 0.6250 0.5000 (  2519 PWs)   bands (ev):

    -8.5813  -8.4895  -8.4845  -8.4454  -8.4408  -4.4699   0.1241   2.9252
     4.5937   8.8086  10.8061  12.0592  13.1185

          k = 0.1500 0.5500 0.5000 (  2514 PWs)   bands (ev):

    -8.5774  -8.4907  -8.4882  -8.4435  -8.4416  -4.6268   0.2498   3.2195
     4.8714   8.5718  10.8325  11.6493  13.0466

          k = 0.1750 0.4750 0.5000 (  2511 PWs)   bands (ev):

    -8.5739  -8.4919  -8.4909  -8.4431  -8.4411  -4.7718   0.3868   3.5695
     5.0378   8.3897  10.7632  11.3028  13.0295

          k = 0.2000 0.4000 0.5000 (  2515 PWs)   bands (ev):

    -8.5710  -8.4935  -8.4918  -8.4442  -8.4397  -4.8975   0.5396   3.9381
     5.0609   8.2497  10.5210  11.3132  12.8464

          k = 0.2250 0.3250 0.5000 (  2514 PWs)   bands (ev):

    -8.5689  -8.4943  -8.4920  -8.4454  -8.4388  -4.9984   0.7091   4.2742
     4.9378   8.1751  10.3393  11.4546  12.5487

          k = 0.2500 0.2500 0.5000 (  2530 PWs)   bands (ev):

    -8.5676  -8.4943  -8.4918  -8.4466  -8.4384  -5.0709   0.8899   4.4444
     4.7775   8.2313  10.2327  11.6131  12.2358

          k = 0.2750 0.1750 0.5000 (  2525 PWs)   bands (ev):

    -8.5668  -8.4939  -8.4914  -8.4474  -8.4384  -5.1127   1.0660   4.1947
     4.8643   8.4538  10.1350  11.6775  12.0450

          k = 0.3000 0.1000 0.5000 (  2519 PWs)   bands (ev):

    -8.5665  -8.4935  -8.4909  -8.4479  -8.4388  -5.1230   1.2026   3.8461
     4.9685   8.7834  10.0370  11.5333  12.0967

          k = 0.3250 0.0250 0.5000 (  2526 PWs)   bands (ev):

    -8.5668  -8.4933  -8.4906  -8.4479  -8.4392  -5.1028   1.2394   3.5919
     5.0258   9.0121  10.0565  11.4143  12.1410

          k = 0.3500-0.0500 0.5000 (  2525 PWs)   bands (ev):

    -8.5677  -8.4932  -8.4907  -8.4472  -8.4395  -5.0547   1.1197   3.5303
     5.0516   8.9223  10.2718  11.4660  12.0824

          k = 0.3750-0.1250 0.5000 (  2517 PWs)   bands (ev):

    -8.5691  -8.4933  -8.4911  -8.4459  -8.4397  -4.9837   0.8605   3.6672
     5.0604   8.6277  10.4407  11.5185  12.2385

          k = 0.4000-0.2000 0.5000 (  2515 PWs)   bands (ev):

    -8.5710  -8.4935  -8.4918  -8.4442  -8.4397  -4.8975   0.5395   3.9381
     5.0609   8.2496  10.5210  11.3132  12.8464

          k = 0.4250-0.2750 0.5000 (  2513 PWs)   bands (ev):

    -8.5731  -8.4936  -8.4925  -8.4424  -8.4396  -4.8068   0.2275   4.2778
     5.0583   7.8400  10.5858  11.0781  13.5178

          k = 0.4500-0.3500 0.5000 (  2510 PWs)   bands (ev):

    -8.5749  -8.4938  -8.4932  -8.4408  -8.4395  -4.7253  -0.0282   4.6311
     5.0550   7.4409  10.6550  10.8925  13.8951

          k = 0.4750-0.4250 0.5000 (  2510 PWs)   bands (ev):

    -8.5761  -8.4939  -8.4937  -8.4397  -8.4394  -4.6680  -0.1952   4.9268
     5.0525   7.1184  10.7142  10.7771  13.9046

          k = 0.5000-0.5000 0.5000 (  2512 PWs)   bands (ev):

    -8.5766  -8.4939  -8.4939  -8.4393  -8.4393  -4.6473  -0.2533   5.0515
     5.0515   6.9849  10.7381  10.7381  13.8672

          k = 0.4750-0.4750 0.4750 (  2506 PWs)   bands (ev):

    -8.5762  -8.4940  -8.4940  -8.4394  -8.4394  -4.6636  -0.2231   5.0562
     5.0562   6.9898  10.7405  10.7405  13.8661

          k = 0.4500-0.4500 0.4500 (  2509 PWs)   bands (ev):

    -8.5752  -8.4942  -8.4942  -8.4396  -8.4396  -4.7112  -0.1338   5.0703
     5.0703   7.0046  10.7472  10.7472  13.8595

          k = 0.4250-0.4250 0.4250 (  2503 PWs)   bands (ev):

    -8.5734  -8.4945  -8.4945  -8.4399  -8.4399  -4.7859   0.0102   5.0936
     5.0936   7.0291  10.7570  10.7570  13.8347

          k = 0.4000-0.4000 0.4000 (  2512 PWs)   bands (ev):

    -8.5709  -8.4950  -8.4950  -8.4402  -8.4402  -4.8824   0.2034   5.1259
     5.1259   7.0629  10.7681  10.7681  13.7645

          k = 0.3750-0.3750 0.3750 (  2509 PWs)   bands (ev):

    -8.5679  -8.4956  -8.4956  -8.4407  -8.4407  -4.9944   0.4394   5.1671
     5.1671   7.1056  10.7777  10.7777  13.6100

          k = 0.3500-0.3500 0.3500 (  2524 PWs)   bands (ev):

    -8.5643  -8.4964  -8.4964  -8.4411  -8.4411  -5.1164   0.7121   5.2166
     5.2166   7.1565  10.7822  10.7822  13.3514

          k = 0.3250-0.3250 0.3250 (  2527 PWs)   bands (ev):

    -8.5601  -8.4973  -8.4973  -8.4416  -8.4416  -5.2435   1.0163   5.2742
     5.2742   7.2146  10.7777  10.7777  13.0140

          k = 0.3000-0.3000 0.3000 (  2518 PWs)   bands (ev):

    -8.5556  -8.4983  -8.4983  -8.4420  -8.4420  -5.3715   1.3471   5.3392
     5.3392   7.2783  10.7599  10.7599  12.6356

          k = 0.2750-0.2750 0.2750 (  2524 PWs)   bands (ev):

    -8.5507  -8.4995  -8.4995  -8.4424  -8.4424  -5.4972   1.7008   5.4107
     5.4107   7.3454  10.7247  10.7247  12.2419

          k = 0.2500-0.2500 0.2500 (  2529 PWs)   bands (ev):

    -8.5457  -8.5008  -8.5008  -8.4427  -8.4427  -5.6180   2.0737   5.4877
     5.4877   7.4126  10.6697  10.6697  11.8478

          k = 0.2250-0.2250 0.2250 (  2535 PWs)   bands (ev):

    -8.5405  -8.5021  -8.5021  -8.4430  -8.4430  -5.7319   2.4628   5.5690
     5.5690   7.4749  10.5945  10.5945  11.4638

          k = 0.2000-0.2000 0.2000 (  2538 PWs)   bands (ev):

    -8.5353  -8.5035  -8.5035  -8.4431  -8.4431  -5.8372   2.8654   5.6531
     5.6531   7.5252  10.5013  10.5013  11.0986

          k = 0.1750-0.1750 0.1750 (  2550 PWs)   bands (ev):

    -8.5303  -8.5049  -8.5049  -8.4433  -8.4433  -5.9326   3.2784   5.7380
     5.7380   7.5530  10.3944  10.3944  10.7622

          k = 0.1500-0.1500 0.1500 (  2544 PWs)   bands (ev):

    -8.5256  -8.5062  -8.5062  -8.4433  -8.4433  -6.0170   3.6995   5.8215
     5.8215   7.5442  10.2804  10.2804  10.4670

          k = 0.1250-0.1250 0.1250 (  2544 PWs)   bands (ev):

    -8.5213  -8.5073  -8.5073  -8.4434  -8.4434  -6.0898   4.1254   5.9006
     5.9006   7.4827  10.1664  10.1664  10.2258

          k = 0.1000-0.1000 0.1000 (  2538 PWs)   bands (ev):

    -8.5175  -8.5084  -8.5084  -8.4434  -8.4434  -6.1501   4.5530   5.9723
     5.9723   7.3541  10.0483  10.0600  10.0600

          k = 0.0750-0.0750 0.0750 (  2541 PWs)   bands (ev):

    -8.5145  -8.5092  -8.5092  -8.4433  -8.4433  -6.1976   4.9783   6.0331
     6.0331   7.1533   9.9343   9.9682   9.9682

          k = 0.0500-0.0500 0.0500 (  2541 PWs)   bands (ev):

    -8.5122  -8.5098  -8.5098  -8.4433  -8.4433  -6.2317   5.3968   6.0796
     6.0797   6.8865   9.8723   9.8975   9.8975

          k = 0.0250-0.0250 0.0250 (  2550 PWs)   bands (ev):

    -8.5108  -8.5102  -8.5102  -8.4433  -8.4433  -6.2523   5.8008   6.1088
     6.1088   6.5687   9.8449   9.8528   9.8528

          k = 0.0000 0.0000 0.0000 (  2565 PWs)   bands (ev):

    -8.5104  -8.5104  -8.5104  -8.4433  -8.4433  -6.2592   6.1188   6.1189
     6.1189   6.2784   9.8376   9.8376   9.8376

          k = 0.0000 0.0000 0.0500 (  2553 PWs)   bands (ev):

    -8.5111  -8.5101  -8.5101  -8.4434  -8.4432  -6.2500   5.7588   6.0881
     6.0881   6.6372   9.8020   9.8803   9.8803

          k = 0.0000 0.0000 0.1000 (  2545 PWs)   bands (ev):

    -8.5134  -8.5094  -8.5094  -8.4437  -8.4430  -6.2225   5.3309   6.0001
     6.0001   7.0596   9.7025  10.0040  10.0040

          k = 0.0000 0.0000 0.1500 (  2541 PWs)   bands (ev):

    -8.5171  -8.5082  -8.5082  -8.4441  -8.4426  -6.1770   4.9035   5.8660
     5.8660   7.4731   9.5562  10.1974  10.1974

          k = 0.0000 0.0000 0.2000 (  2549 PWs)   bands (ev):

    -8.5219  -8.5065  -8.5065  -8.4448  -8.4421  -6.1137   4.4794   5.6990
     5.6991   7.8654   9.3850  10.4469  10.4469

          k = 0.0000 0.0000 0.2500 (  2541 PWs)   bands (ev):

    -8.5278  -8.5044  -8.5044  -8.4457  -8.4415  -6.0332   4.0601   5.5118
     5.5118   8.2157   9.2145  10.7398  10.7398

          k = 0.0000 0.0000 0.3000 (  2545 PWs)   bands (ev):

    -8.5344  -8.5020  -8.5020  -8.4468  -8.4408  -5.9360   3.6462   5.3140
     5.3140   8.4717   9.0933  11.0658  11.0658

          k = 0.0000 0.0000 0.3500 (  2541 PWs)   bands (ev):

    -8.5415  -8.4993  -8.4993  -8.4481  -8.4400  -5.8230   3.2384   5.1135
     5.1135   8.5286   9.1140  11.4168  11.4168

          k = 0.0000 0.0000 0.4000 (  2533 PWs)   bands (ev):

    -8.5489  -8.4963  -8.4963  -8.4495  -8.4391  -5.6949   2.8376   4.9157
     4.9158   8.4225   9.2223  11.7870  11.7871

          k = 0.0000 0.0000 0.4500 (  2533 PWs)   bands (ev):

    -8.5564  -8.4931  -8.4931  -8.4510  -8.4382  -5.5529   2.4446   4.7248
     4.7248   8.2745   9.2827  12.1715  12.1715

          k = 0.0000 0.0000 0.5000 (  2525 PWs)   bands (ev):

    -8.5638  -8.4898  -8.4898  -8.4527  -8.4372  -5.3984   2.0607   4.5440
     4.5440   8.1263   9.2558  12.5669  12.5669

          k = 0.0000 0.0000 0.5500 (  2525 PWs)   bands (ev):

    -8.5709  -8.4866  -8.4866  -8.4544  -8.4363  -5.2330   1.6873   4.3754
     4.3754   7.9901   9.1507  12.9701  12.9701

          k = 0.0000 0.0000 0.6000 (  2501 PWs)   bands (ev):

    -8.5776  -8.4833  -8.4833  -8.4560  -8.4353  -5.0589   1.3268   4.2212
     4.2212   7.8710   8.9926  13.3786  13.3786

          k = 0.0000 0.0000 0.6500 (  2502 PWs)   bands (ev):

    -8.5837  -8.4802  -8.4802  -8.4577  -8.4345  -4.8791   0.9818   4.0823
     4.0823   7.7716   8.8068  13.7889  13.7891

          k = 0.0000 0.0000 0.7000 (  2494 PWs)   bands (ev):

    -8.5893  -8.4774  -8.4774  -8.4592  -8.4337  -4.6972   0.6564   3.9601
     3.9601   7.6937   8.6124  14.1977  14.1977

          k = 0.0000 0.0000 0.7500 (  2506 PWs)   bands (ev):

    -8.5941  -8.4748  -8.4748  -8.4606  -8.4329  -4.5185   0.3557   3.8554
     3.8554   7.6381   8.4221  14.5992  14.5992

          k = 0.0000 0.0000 0.8000 (  2498 PWs)   bands (ev):

    -8.5981  -8.4726  -8.4726  -8.4617  -8.4323  -4.3498   0.0869   3.7689
     3.7689   7.6058   8.2449  14.9852  14.9853

          k = 0.0000 0.0000 0.8500 (  2506 PWs)   bands (ev):

    -8.6013  -8.4708  -8.4708  -8.4627  -8.4318  -4.2000  -0.1410   3.7011
     3.7011   7.5968   8.0861  15.3408  15.3409

          k = 0.0000 0.0000 0.9000 (  2498 PWs)   bands (ev):

    -8.6037  -8.4695  -8.4695  -8.4634  -8.4314  -4.0801  -0.3168   3.6524
     3.6524   7.6110   7.9499  15.6421  15.6422

          k = 0.0000 0.0000 0.9500 (  2498 PWs)   bands (ev):

    -8.6050  -8.4687  -8.4687  -8.4639  -8.4312  -4.0017  -0.4289   3.6231
     3.6231   7.6447   7.8420  15.8521  15.8521

          k = 0.0000 0.0000 1.0000 (  2498 PWs)   bands (ev):

    -8.6055  -8.4685  -8.4685  -8.4640  -8.4311  -3.9743  -0.4675   3.6133
     3.6134   7.6730   7.7890  15.9288  15.9288

          k = 0.0500 0.0250 0.9500 (  2497 PWs)   bands (ev):

    -8.6047  -8.4692  -8.4689  -8.4634  -8.4314  -4.0000  -0.4249   3.5683
     3.6261   7.6973   7.9072  15.6743  15.7800

          k = 0.1000 0.0500 0.9000 (  2504 PWs)   bands (ev):

    -8.6025  -8.4713  -8.4702  -8.4620  -8.4320  -4.0713  -0.3071   3.4534
     3.6653   7.7914   8.2203  14.9659  15.4256

          k = 0.1500 0.0750 0.8500 (  2505 PWs)   bands (ev):

    -8.5989  -8.4744  -8.4721  -8.4600  -8.4330  -4.1737  -0.1417   3.3165
     3.7341   7.9533   8.6825  14.0661  14.9511

          k = 0.2000 0.1000 0.8000 (  2507 PWs)   bands (ev):

    -8.5945  -8.4781  -8.4746  -8.4575  -8.4341  -4.2902   0.0330   3.2093
     3.8374   8.1706   9.2481  13.1391  14.4093

          k = 0.2500 0.1250 0.7500 (  2510 PWs)   bands (ev):

    -8.5896  -8.4822  -8.4776  -8.4547  -8.4353  -4.4065   0.1764   3.1738
     3.9817   8.4235   9.8580  12.2835  13.8387

          k = 0.3000 0.1500 0.7000 (  2510 PWs)   bands (ev):

    -8.5849  -8.4861  -8.4809  -8.4518  -8.4365  -4.5113   0.2587   3.2297
     4.1734   8.6700  10.3539  11.6867  13.2741

          k = 0.3500 0.1750 0.6500 (  2508 PWs)   bands (ev):

    -8.5807  -8.4892  -8.4843  -8.4488  -8.4377  -4.5971   0.2746   3.3655
     4.4127   8.8005  10.3720  11.7470  12.7951

          k = 0.4000 0.2000 0.6000 (  2509 PWs)   bands (ev):

    -8.5777  -8.4913  -8.4874  -8.4459  -8.4388  -4.6589   0.2404   3.5477
     4.6792   8.6458  10.3272  11.7953  12.8170

          k = 0.4500 0.2250 0.5500 (  2513 PWs)   bands (ev):

    -8.5760  -8.4922  -8.4900  -8.4434  -8.4399  -4.6937   0.1799   3.7405
     4.9131   8.3093  10.5092  11.4130  13.3245

          k = 0.5000 0.2500 0.5000 (  2507 PWs)   bands (ev):

    -8.5755  -8.4923  -8.4915  -8.4417  -8.4408  -4.7000   0.1131   3.9116
     5.0149   8.0714  10.6590  11.1304  13.6595

          k = 0.5500 0.2750 0.4500 (  2515 PWs)   bands (ev):

    -8.5762  -8.4927  -8.4909  -8.4425  -8.4396  -4.6778   0.0525   4.0176
     4.9284   8.0525  10.5005  11.2511  13.6472

          k = 0.6000 0.3000 0.4000 (  2510 PWs)   bands (ev):

    -8.5778  -8.4922  -8.4895  -8.4439  -8.4386  -4.6281   0.0041   3.9771
     4.7552   8.1715  10.3914  11.4732  13.4262

          k = 0.6500 0.3250 0.3500 (  2509 PWs)   bands (ev):

    -8.5800  -8.4908  -8.4876  -8.4453  -8.4381  -4.5534  -0.0317   3.7354
     4.6264   8.3007  10.4685  11.7220  13.1343

          k = 0.7000 0.3500 0.3000 (  2510 PWs)   bands (ev):

    -8.5826  -8.4892  -8.4852  -8.4468  -8.4380  -4.4577  -0.0593   3.3947
     4.4980   8.4341  10.6258  12.0513  12.8813

          k = 0.7500 0.3750 0.2500 (  2513 PWs)   bands (ev):

    -8.5854  -8.4877  -8.4821  -8.4483  -8.4381  -4.3467  -0.0871   3.0685
     4.3055   8.6349  10.7365  12.2191  12.9929

          k = 0.8000 0.4000 0.2000 (  2520 PWs)   bands (ev):

    -8.5881  -8.4865  -8.4787  -8.4496  -8.4383  -4.2286  -0.1246   2.8174
     4.0468   8.9355  10.7899  12.0375  13.5438

          k = 0.8500 0.4250 0.1500 (  2510 PWs)   bands (ev):

    -8.5905  -8.4856  -8.4758  -8.4507  -8.4385  -4.1141  -0.1763   2.6724
     3.7492   9.3292  10.8184  11.8129  13.5526

          k = 0.9000 0.4500 0.1000 (  2518 PWs)   bands (ev):

    -8.5923  -8.4849  -8.4736  -8.4515  -8.4387  -4.0166  -0.2353   2.6427
     3.4456   9.7868  10.8395  11.6165  12.9581

          k = 0.9500 0.4750 0.0500 (  2510 PWs)   bands (ev):

    -8.5935  -8.4844  -8.4723  -8.4519  -8.4387  -3.9503  -0.2837   2.7159
     3.1688  10.2471  10.8453  11.4671  12.3998

          k = 1.0000 0.5000 0.0000 (  2520 PWs)   bands (ev):

    -8.5939  -8.4842  -8.4719  -8.4521  -8.4387  -3.9267  -0.3026   2.8154
     3.0011  10.5078  10.8180  11.3974  12.1510

          k = 0.9875 0.5125 0.0000 (  2512 PWs)   bands (ev):

    -8.5939  -8.4842  -8.4719  -8.4521  -8.4387  -3.9275  -0.3023   2.8098
     3.0104  10.4837  10.7987  11.4287  12.1681

          k = 0.9750 0.5250 0.0000 (  2512 PWs)   bands (ev):

    -8.5939  -8.4841  -8.4719  -8.4521  -8.4386  -3.9297  -0.3015   2.7942
     3.0370  10.4006  10.7699  11.5098  12.2137

          k = 0.9625 0.5375 0.0000 (  2512 PWs)   bands (ev):

    -8.5940  -8.4841  -8.4720  -8.4522  -8.4385  -3.9331  -0.3004   2.7726
     3.0768  10.2649  10.7541  11.6190  12.2807

          k = 0.9500 0.5500 0.0000 (  2517 PWs)   bands (ev):

    -8.5940  -8.4839  -8.4721  -8.4523  -8.4384  -3.9374  -0.2992   2.7483
     3.1260  10.0998  10.7464  11.7432  12.3640

          k = 0.9375 0.5625 0.0000 (  2520 PWs)   bands (ev):

    -8.5941  -8.4838  -8.4721  -8.4524  -8.4383  -3.9426  -0.2981   2.7231
     3.1824   9.9216  10.7408  11.8762  12.4599

          k = 0.9250 0.5750 0.0000 (  2516 PWs)   bands (ev):

    -8.5942  -8.4835  -8.4723  -8.4526  -8.4382  -3.9483  -0.2971   2.6983
     3.2443   9.7390  10.7349  12.0152  12.5653

          k = 0.9125 0.5875 0.0000 (  2518 PWs)   bands (ev):

    -8.5942  -8.4833  -8.4724  -8.4527  -8.4380  -3.9545  -0.2962   2.6742
     3.3107   9.5565  10.7278  12.1582  12.6778

          k = 0.9000 0.6000 0.0000 (  2518 PWs)   bands (ev):

    -8.5943  -8.4830  -8.4725  -8.4529  -8.4379  -3.9608  -0.2956   2.6514
     3.3803   9.3772  10.7199  12.3045  12.7954

          k = 0.8875 0.6125 0.0000 (  2528 PWs)   bands (ev):

    -8.5944  -8.4828  -8.4727  -8.4531  -8.4377  -3.9673  -0.2952   2.6299
     3.4521   9.2031  10.7111  12.4533  12.9161

          k = 0.8750 0.6250 0.0000 (  2524 PWs)   bands (ev):

    -8.5945  -8.4824  -8.4728  -8.4533  -8.4375  -3.9736  -0.2950   2.6101
     3.5251   9.0363  10.7022  12.6043  13.0384

          k = 0.8625 0.6375 0.0000 (  2522 PWs)   bands (ev):

    -8.5946  -8.4821  -8.4730  -8.4535  -8.4374  -3.9797  -0.2950   2.5919
     3.5979   8.8783  10.6933  12.7569  13.1605

          k = 0.8500 0.6500 0.0000 (  2520 PWs)   bands (ev):

    -8.5947  -8.4818  -8.4732  -8.4536  -8.4372  -3.9855  -0.2952   2.5754
     3.6693   8.7302  10.6845  12.9105  13.2807

          k = 0.8375 0.6625 0.0000 (  2521 PWs)   bands (ev):

    -8.5948  -8.4814  -8.4734  -8.4538  -8.4371  -3.9909  -0.2955   2.5608
     3.7379   8.5940  10.6764  13.0645  13.3970

          k = 0.8250 0.6750 0.0000 (  2521 PWs)   bands (ev):

    -8.5949  -8.4811  -8.4736  -8.4539  -8.4369  -3.9957  -0.2958   2.5481
     3.8020   8.4712  10.6690  13.2181  13.5075

          k = 0.8125 0.6875 0.0000 (  2521 PWs)   bands (ev):

    -8.5950  -8.4808  -8.4738  -8.4541  -8.4368  -4.0000  -0.2962   2.5372
     3.8601   8.3635  10.6625  13.3700  13.6100

          k = 0.8000 0.7000 0.0000 (  2517 PWs)   bands (ev):

    -8.5951  -8.4805  -8.4739  -8.4542  -8.4367  -4.0035  -0.2966   2.5283
     3.9105   8.2725  10.6571  13.5173  13.7025

          k = 0.7875 0.7125 0.0000 (  2520 PWs)   bands (ev):

    -8.5952  -8.4803  -8.4741  -8.4543  -8.4367  -4.0063  -0.2969   2.5214
     3.9517   8.1998  10.6527  13.6534  13.7857

          k = 0.7750 0.7250 0.0000 (  2520 PWs)   bands (ev):

    -8.5952  -8.4801  -8.4742  -8.4543  -8.4366  -4.0084  -0.2972   2.5164
     3.9823   8.1465  10.6496  13.7612  13.8660

          k = 0.7625 0.7375 0.0000 (  2520 PWs)   bands (ev):

    -8.5952  -8.4800  -8.4743  -8.4544  -8.4366  -4.0096  -0.2973   2.5134
     4.0012   8.1142  10.6477  13.8206  13.9453

          k = 0.7500 0.7500 0.0000 (  2522 PWs)   bands (ev):

    -8.5952  -8.4800  -8.4743  -8.4544  -8.4366  -4.0100  -0.2974   2.5124
     4.0076   8.1033  10.6470  13.8382  13.9823

     Writing all to output data dir ./work/pwscf.save/

     init_run     :      0.30s CPU      0.33s WALL (       1 calls)
     electrons    :      7.27s CPU      7.93s WALL (       1 calls)

     Called by init_run:
     wfcinit      :      0.00s CPU      0.00s WALL (       1 calls)
     wfcinit:atom :      0.00s CPU      0.00s WALL (     101 calls)
     wfcinit:wfcr :      0.19s CPU      0.20s WALL (     101 calls)
     potinit      :      0.04s CPU      0.06s WALL (       1 calls)
     hinit0       :      0.24s CPU      0.24s WALL (       1 calls)

     Called by electrons:
     c_bands      :      7.27s CPU      7.92s WALL (       1 calls)
     v_of_rho     :      0.00s CPU      0.00s WALL (       1 calls)
     v_h          :      0.00s CPU      0.00s WALL (       1 calls)
     v_xc         :      0.00s CPU      0.00s WALL (       1 calls)
     newd         :      0.01s CPU      0.01s WALL (       1 calls)
     PAW_pot      :      0.04s CPU      0.04s WALL (       1 calls)

     Called by c_bands:
     init_us_2    :      0.01s CPU      0.01s WALL (     101 calls)
     init_us_2:cp :      0.01s CPU      0.01s WALL (     101 calls)
     cegterg      :      7.00s CPU      7.19s WALL (     289 calls)

     Called by sum_band:

     Called by *egterg:
     cdiaghg      :      0.55s CPU      0.57s WALL (    4779 calls)
     cegterg:over :      0.39s CPU      0.40s WALL (    4678 calls)
     cegterg:upda :      0.10s CPU      0.10s WALL (    4678 calls)
     cegterg:last :      0.26s CPU      0.27s WALL (    4277 calls)
     h_psi        :      5.39s CPU      5.54s WALL (    5068 calls)
     s_psi        :      0.09s CPU      0.10s WALL (    5068 calls)
     g_psi        :      0.04s CPU      0.04s WALL (    4678 calls)

     Called by h_psi:
     h_psi:calbec :      0.24s CPU      0.25s WALL (    5068 calls)
     vloc_psi     :      5.03s CPU      5.17s WALL (    5068 calls)
     add_vuspsi   :      0.10s CPU      0.10s WALL (    5068 calls)

     General routines
     calbec       :      0.24s CPU      0.24s WALL (    5068 calls)
     fft          :      0.19s CPU      0.19s WALL (      13 calls)
     ffts         :      0.00s CPU      0.00s WALL (       1 calls)
     fftw         :      4.69s CPU      4.82s WALL (   90452 calls)
     interpolate  :      0.00s CPU      0.00s WALL (       1 calls)

     Parallel routines

     PAW routines
     PAW_pot      :      0.04s CPU      0.04s WALL (       1 calls)

     PWSCF        :      7.86s CPU      9.68s WALL


   This run was terminated on:  18:54:26  22Sep2023            

=------------------------------------------------------------------------------=
   JOB DONE.
=------------------------------------------------------------------------------=
