<UPF version="2.0.1">
  <PP_INFO>
    Generated using "atomic" code by A. Dal Corso  v.7.2
    Author: ADC
    Generation date: 22Sep2023
    Pseudopotential type: PAW
    Element: Pm
    Functional:  SLA  PZ   NOGX NOGC
    Suggested minimum cutoff for wavefunctions: 113. Ry
    Suggested minimum cutoff for charge density: 483. Ry
    The Pseudo was generated with a Scalar-Relativistic Calculation
    Local Potential by smoothing AE potential with Bessel fncs, cutoff radius:   1.7000
    Valence configuration: 
    nl pn  l   occ       Rcut    Rcut US       E pseu
    5S  1  0  2.00      1.300      1.600    -3.206995
    6S  2  0  2.00      1.300      1.600    -0.286478
    5P  2  1  6.00      1.400      1.900    -1.769808
    4D  3  2 10.00      1.050      1.300    -9.242240
    5D  4  2  0.50      1.050      1.300    -0.181135
    4F  4  3  4.50      1.100      1.300    -0.357467
    Generation configuration:
    5S  1  0  2.00      1.300      1.600    -3.207018
    6S  2  0  2.00      1.300      1.600    -0.286485
    5P  2  1  6.00      1.400      1.900    -1.769826
    6P  3  1  0.00      1.400      1.900     0.300000
    4D  3  2 10.00      1.050      1.300    -9.242325
    5D  4  2  0.50      1.050      1.300    -0.181154
    4F  4  3  4.50      1.100      1.300    -0.357526
    4F  4  3  0.00      1.100      1.300     1.000000
    Pseudization used: troullier-martins
    <PP_INPUTFILE>
@input
title='Pm',
zed=61.0,
rel=1,
config='[Xe] 4f4.5 5d0.5 6s2. 6p0.',
iswitch=3,
dft='LDA'
/
@inputp
lpaw=.true.,
pseudotype=3,
file_pseudopw='Pm.pz-spdfn-kjpaw_psl.1.0.0.UPF',
author='ADC',
lloc=-1,
rcloc=1.7,
which_augfun='PSQ',
rmatch_augfun_nc=.true.,
nlcc=.true.,
new_core_ps=.true.,
rcore=1.2,
tm=.true.
/
8
5S  1  0  2.00  0.00  1.30  1.60  0.0
6S  2  0  2.00  0.00  1.30  1.60  0.0
5P  2  1  6.00  0.00  1.40  1.90  0.0
6P  3  1  0.00  0.30  1.40  1.90  0.0
4D  3  2 10.00  0.00  1.05  1.30  0.0
5D  4  2  0.50  0.00  1.05  1.30  0.0
4F  4  3  4.50  0.00  1.10  1.30  0.0
4F  4  3  0.00  1.00  1.10  1.30  0.0
    </PP_INPUTFILE>
  </PP_INFO>
    <!-- END OF HUMAN READABLE SECTION -->
  <PP_HEADER generated="Generated using 'atomic' code by A. Dal Corso  v.7.2" author="ADC" date="22Sep2023" comment="" element="Pm" pseudo_type="PAW" relativistic="scalar" is_ultrasoft="true" is_paw="true" is_coulomb="false" has_so="false" has_wfc="true" has_gipaw="false" paw_as_gipaw="false" core_correction="true" functional=" SLA  PZ   NOGX NOGC" z_valence="25.000000000000000" total_psenergy="-959.59097448845591" wfc_cutoff="113.02580941576731" rho_cutoff="483.05576502609586" l_max="3" l_max_rho="6" l_local="-1" mesh_size="1259" number_of_wfc="6" number_of_proj="8"/>
  <PP_MESH mesh="1259" dx="1.2500000000000001E-002" xmin="-7.0000000000000000" rmax="100.00000000000000" zmesh="61.000000000000000">
    <PP_R>
   1.494888468122158E-05   1.513691850277086E-05   1.532731749863250E-05
   1.552011141903695E-05   1.571533038842656E-05   1.591300491016244E-05
   1.611316587129080E-05   1.631584454736904E-05   1.652107260735263E-05
   1.672888211854352E-05   1.693930555160061E-05   1.715237578561342E-05
   1.736812611323951E-05   1.758659024590651E-05   1.780780231907964E-05
   1.803179689759538E-05   1.825860898106235E-05   1.848827400933004E-05
   1.872082786802635E-05   1.895630689416488E-05   1.919474788182253E-05
   1.943618808788873E-05   1.968066523788690E-05   1.992821753186909E-05
   2.017888365038494E-05   2.043270276052540E-05   2.068971452204286E-05
   2.094995909354794E-05   2.121347713878439E-05   2.148030983298295E-05
   2.175049886929494E-05   2.202408646530700E-05   2.230111536963761E-05
   2.258162886861667E-05   2.286567079304916E-05   2.315328552506363E-05
   2.344451800504712E-05   2.373941373866714E-05   2.403801880398202E-05
   2.434037985864077E-05   2.464654414717332E-05   2.495655950837265E-05
   2.527047438276968E-05   2.558833782020217E-05   2.591019948747897E-05
   2.623610967614040E-05   2.656611931031650E-05   2.690027995468403E-05
   2.723864382252351E-05   2.758126378387773E-05   2.792819337381269E-05
   2.827948680078266E-05   2.863519895510032E-05   2.899538541751345E-05
   2.936010246788967E-05   2.972940709401009E-05   3.010335700047389E-05
   3.048201061771477E-05   3.086542711113078E-05   3.125366639032912E-05
   3.164678911848704E-05   3.204485672183061E-05   3.244793139923273E-05
   3.285607613193178E-05   3.326935469337269E-05   3.368783165917146E-05
   3.411157241720540E-05   3.454064317783006E-05   3.497511098422472E-05
   3.541504372286811E-05   3.586051013414566E-05   3.631157982309044E-05
   3.676832327025907E-05   3.723081184274438E-05   3.769911780532682E-05
   3.817331433176580E-05   3.865347551623333E-05   3.913967638489137E-05
   3.963199290761481E-05   4.013050200986201E-05   4.063528158469440E-05
   4.114641050494751E-05   4.166396863555506E-05   4.218803684602787E-05
   4.271869702309014E-05   4.325603208347412E-05   4.380012598687624E-05
   4.435106374907585E-05   4.490893145521915E-05   4.547381627327031E-05
   4.604580646763135E-05   4.662499141293389E-05   4.721146160800398E-05
   4.780530869000275E-05   4.840662544874502E-05   4.901550584119771E-05
   4.963204500616091E-05   5.025633927913350E-05   5.088848620736571E-05
   5.152858456510132E-05   5.217673436901093E-05   5.283303689382011E-05
   5.349759468813358E-05   5.417051159045872E-05   5.485189274543069E-05
   5.554184462024117E-05   5.624047502127433E-05   5.694789311095170E-05
   5.766420942478899E-05   5.838953588866770E-05   5.912398583632345E-05
   5.986767402705481E-05   6.062071666365462E-05   6.138323141056689E-05
   6.215533741227227E-05   6.293715531190433E-05   6.372880727010050E-05
   6.453041698408988E-05   6.534210970702115E-05   6.616401226753375E-05
   6.699625308957486E-05   6.783896221246618E-05   6.869227131122262E-05
   6.955631371712688E-05   7.043122443856295E-05   7.131714018211096E-05
   7.221419937390830E-05   7.312254218127871E-05   7.404231053463386E-05
   7.497364814965038E-05   7.591670054972534E-05   7.687161508871494E-05
   7.783854097395865E-05   7.881762928959320E-05   7.980903302016005E-05
   8.081290707450905E-05   8.182940831000356E-05   8.285869555702974E-05
   8.390092964381396E-05   8.495627342155286E-05   8.602489178985876E-05
   8.710695172252582E-05   8.820262229362000E-05   8.931207470389714E-05
   9.043548230755363E-05   9.157302063931311E-05   9.272486744185423E-05
   9.389120269358337E-05   9.507220863675642E-05   9.626806980595496E-05
   9.747897305691958E-05   9.870510759574687E-05   9.994666500845308E-05
   1.012038392909099E-04   1.024768268791567E-04   1.037658266800942E-04
   1.050710401025637E-04   1.063926710888178E-04   1.077309261463871E-04
   1.090860143803471E-04   1.104581475259913E-04   1.118475399819152E-04
   1.132544088435169E-04   1.146789739369182E-04   1.161214578533135E-04
   1.175820859837492E-04   1.190610865543425E-04   1.205586906619416E-04
   1.220751323102351E-04   1.236106484463160E-04   1.251654789977043E-04
   1.267398669098372E-04   1.283340581840291E-04   1.299483019159097E-04
   1.315828503343469E-04   1.332379588408559E-04   1.349138860495087E-04
   1.366108938273411E-04   1.383292473352710E-04   1.400692150695303E-04
   1.418310689036169E-04   1.436150841307775E-04   1.454215395070206E-04
   1.472507172946740E-04   1.491029033064889E-04   1.509783869502974E-04
   1.528774612742349E-04   1.548004230125280E-04   1.567475726318607E-04
   1.587192143783228E-04   1.607156563249480E-04   1.627372104198526E-04
   1.647841925349768E-04   1.668569225154405E-04   1.689557242295205E-04
   1.710809256192542E-04   1.732328587516829E-04   1.754118598707365E-04
   1.776182694497730E-04   1.798524322447785E-04   1.821146973482345E-04
   1.844054182436666E-04   1.867249528608750E-04   1.890736636318626E-04
   1.914519175474665E-04   1.938600862146986E-04   1.962985459148135E-04
   1.987676776621000E-04   2.012678672634170E-04   2.037995053784769E-04
   2.063629875808852E-04   2.089587144199519E-04   2.115870914832766E-04
   2.142485294601226E-04   2.169434442055892E-04   2.196722568055873E-04
   2.224353936426383E-04   2.252332864624942E-04   2.280663724416003E-04
   2.309350942554055E-04   2.338399001475288E-04   2.367812439998013E-04
   2.397595854031840E-04   2.427753897295803E-04   2.458291282045527E-04
   2.489212779809499E-04   2.520523222134661E-04   2.552227501341326E-04
   2.584330571287621E-04   2.616837448143545E-04   2.649753211174734E-04
   2.683083003536135E-04   2.716832033075615E-04   2.751005573147698E-04
   2.785608963437555E-04   2.820647610795309E-04   2.856126990080904E-04
   2.892052645019535E-04   2.928430189067875E-04   2.965265306291199E-04
   3.002563752251505E-04   3.040331354906866E-04   3.078574015522034E-04
   3.117297709590534E-04   3.156508487768350E-04   3.196212476819343E-04
   3.236415880572587E-04   3.277124980891710E-04   3.318346138656457E-04
   3.360085794756599E-04   3.402350471098319E-04   3.445146771623284E-04
   3.488481383340521E-04   3.532361077371274E-04   3.576792710007012E-04
   3.621783223780729E-04   3.667339648551738E-04   3.713469102604094E-04
   3.760178793758841E-04   3.807476020500258E-04   3.855368173116247E-04
   3.903862734853095E-04   3.952967283084734E-04   4.002689490496727E-04
   4.053037126285147E-04   4.104018057370516E-04   4.155640249627040E-04
   4.207911769127284E-04   4.260840783402516E-04   4.314435562718904E-04
   4.368704481369752E-04   4.423656018984014E-04   4.479298761851241E-04
   4.535641404263210E-04   4.592692749872430E-04   4.650461713067721E-04
   4.708957320367120E-04   4.768188711828275E-04   4.828165142476605E-04
   4.888895983751428E-04   4.950390724970246E-04   5.012658974811491E-04
   5.075710462815884E-04   5.139555040906703E-04   5.204202684929173E-04
   5.269663496209192E-04   5.335947703131710E-04   5.403065662738912E-04
   5.471027862348537E-04   5.539844921192551E-04   5.609527592076399E-04
   5.680086763059184E-04   5.751533459154924E-04   5.823878844055240E-04
   5.897134221873716E-04   5.971311038912169E-04   6.046420885449183E-04
   6.122475497551085E-04   6.199486758905751E-04   6.277466702679453E-04
   6.356427513397050E-04   6.436381528845871E-04   6.517341242003495E-04
   6.599319302989812E-04   6.682328521043643E-04   6.766381866524188E-04
   6.851492472937691E-04   6.937673638989560E-04   7.024938830662325E-04
   7.113301683319734E-04   7.202776003837282E-04   7.293375772759594E-04
   7.385115146484888E-04   7.478008459476952E-04   7.572070226504938E-04
   7.667315144911308E-04   7.763758096908349E-04   7.861414151903520E-04
   7.960298568854094E-04   8.060426798651407E-04   8.161814486535073E-04
   8.264477474537602E-04   8.368431803959741E-04   8.473693717876953E-04
   8.580279663677440E-04   8.688206295632098E-04   8.797490477496743E-04
   8.908149285147130E-04   9.020200009247091E-04   9.133660157950229E-04
   9.248547459635631E-04   9.364879865677917E-04   9.482675553252211E-04
   9.601952928174354E-04   9.722730627776839E-04   9.845027523820975E-04
   9.968862725445570E-04   1.009425558215283E-03   1.022122568683171E-03
   1.034979287881941E-03   1.047997724700124E-03   1.061179913294960E-03
   1.074527913410236E-03   1.088043810698125E-03   1.101729717045078E-03
   1.115587770901806E-03   1.129620137617419E-03   1.143829009777765E-03
   1.158216607548027E-03   1.172785179019627E-03   1.187537000561499E-03
   1.202474377175773E-03   1.217599642857933E-03   1.232915160961515E-03
   1.248423324567382E-03   1.264126556857651E-03   1.280027311494314E-03
   1.296128073002634E-03   1.312431357159354E-03   1.328939711385791E-03
   1.345655715145882E-03   1.362581980349222E-03   1.379721151759187E-03
   1.397075907406178E-03   1.414648959006074E-03   1.432443052383941E-03
   1.450460967903071E-03   1.468705520899422E-03   1.487179562121517E-03
   1.505885978175883E-03   1.524827691978090E-03   1.544007663209454E-03
   1.563428888779503E-03   1.583094403294244E-03   1.603007279530329E-03
   1.623170628915185E-03   1.643587602013176E-03   1.664261389017887E-03
   1.685195220250597E-03   1.706392366665027E-03   1.727856140358432E-03
   1.749589895089118E-03   1.771597026800480E-03   1.793880974151623E-03
   1.816445219054655E-03   1.839293287218750E-03   1.862428748701045E-03
   1.885855218464466E-03   1.909576356942574E-03   1.933595870611518E-03
   1.957917512569174E-03   1.982545083121585E-03   2.007482430376753E-03
   2.032733450845923E-03   2.058302090052415E-03   2.084192343148124E-03
   2.110408255537774E-03   2.136953923511012E-03   2.163833494882464E-03
   2.191051169639845E-03   2.218611200600208E-03   2.246517894074467E-03
   2.274775610540251E-03   2.303388765323249E-03   2.332361829287109E-03
   2.361699329532021E-03   2.391405850102089E-03   2.421486032701588E-03
   2.451944577420248E-03   2.482786243467650E-03   2.514015849916860E-03
   2.545638276457427E-03   2.577658464157831E-03   2.610081416237547E-03
   2.642912198848801E-03   2.676155941868171E-03   2.709817839698140E-03
   2.743903152078730E-03   2.778417204909347E-03   2.813365391080965E-03
   2.848753171318773E-03   2.884586075035435E-03   2.920869701195057E-03
   2.957609719188047E-03   2.994811869716963E-03   3.032481965693513E-03
   3.070625893146837E-03   3.109249612143202E-03   3.148359157717282E-03
   3.187960640815142E-03   3.228060249249083E-03   3.268664248664511E-03
   3.309778983518942E-03   3.351410878073346E-03   3.393566437395947E-03
   3.436252248378653E-03   3.479474980766280E-03   3.523241388198699E-03
   3.567558309266115E-03   3.612432668577607E-03   3.657871477843112E-03
   3.703881836969031E-03   3.750470935167582E-03   3.797646052080146E-03
   3.845414558914718E-03   3.893783919597675E-03   3.942761691940036E-03
   3.992355528818374E-03   4.042573179370600E-03   4.093422490206782E-03
   4.144911406635188E-03   4.197047973903772E-03   4.249840338457240E-03
   4.303296749209958E-03   4.357425558834865E-03   4.412235225068587E-03
   4.467734312032994E-03   4.523931491573332E-03   4.580835544613237E-03
   4.638455362526771E-03   4.696799948527707E-03   4.755878419076318E-03
   4.815700005303818E-03   4.876274054454766E-03   4.937610031347578E-03
   4.999717519853431E-03   5.062606224393769E-03   5.126285971456621E-03
   5.190766711132022E-03   5.256058518666736E-03   5.322171596038520E-03
   5.389116273550232E-03   5.456903011443929E-03   5.525542401535319E-03
   5.595045168868753E-03   5.665422173393025E-03   5.736684411658286E-03
   5.808843018534243E-03   5.881909268950029E-03   5.955894579655926E-03
   6.030810511007251E-03   6.106668768770706E-03   6.183481205953394E-03
   6.261259824654903E-03   6.340016777942647E-03   6.419764371750803E-03
   6.500515066803163E-03   6.582281480560111E-03   6.665076389190153E-03
   6.748912729566210E-03   6.833803601287023E-03   6.919762268724025E-03
   7.006802163093882E-03   7.094936884557172E-03   7.184180204343435E-03
   7.274546066902949E-03   7.366048592085601E-03   7.458702077347110E-03
   7.552520999983050E-03   7.647520019390962E-03   7.743713979360896E-03
   7.841117910394822E-03   7.939747032055125E-03   8.039616755342727E-03
   8.140742685105080E-03   8.243140622474441E-03   8.346826567336874E-03
   8.451816720832202E-03   8.558127487885514E-03   8.665775479770455E-03
   8.774777516704758E-03   8.885150630478480E-03   8.996912067115191E-03
   9.110079289566749E-03   9.224669980441904E-03   9.340702044769229E-03
   9.458193612794865E-03   9.577163042815345E-03   9.697628924046155E-03
   9.819610079526324E-03   9.943125569059564E-03   1.006819469219242E-02
   1.019483699122984E-02   1.032307225428870E-02   1.045292051838973E-02
   1.058440207258840E-02   1.071753746114504E-02   1.085234748673499E-02
   1.098885321369901E-02   1.112707597133467E-02   1.126703735722905E-02
   1.140875924063348E-02   1.155226376588055E-02   1.169757335584431E-02
   1.184471071544381E-02   1.199369883519085E-02   1.214456099478226E-02
   1.229732076673741E-02   1.245200202008146E-02   1.260862892407493E-02
   1.276722595199024E-02   1.292781788493568E-02   1.309042981572750E-02
   1.325508715281070E-02   1.342181562422922E-02   1.359064128164591E-02
   1.376159050441324E-02   1.393469000369506E-02   1.410996682664030E-02
   1.428744836060916E-02   1.446716233745238E-02   1.464913683784452E-02
   1.483340029567147E-02   1.501998150247341E-02   1.520890961194350E-02
   1.540021414448321E-02   1.559392499181499E-02   1.579007242165282E-02
   1.598868708243169E-02   1.618980000809643E-02   1.639344262295082E-02
   1.659964674656778E-02   1.680844459876114E-02   1.701986880462009E-02
   1.723395239960696E-02   1.745072883471900E-02   1.767023198171527E-02
   1.789249613840905E-02   1.811755603402702E-02   1.834544683463576E-02
   1.857620414863650E-02   1.880986403232906E-02   1.904646299554563E-02
   1.928603800735559E-02   1.952862650184195E-02   1.977426638395050E-02
   2.002299603541263E-02   2.027485432074238E-02   2.052988059330926E-02
   2.078811470148722E-02   2.104959699488101E-02   2.131436833063101E-02
   2.158247007979708E-02   2.185394413382301E-02   2.212883291108203E-02
   2.240717936350486E-02   2.268902698329101E-02   2.297441980970449E-02
   2.326340243595505E-02   2.355602001616599E-02   2.385231827242953E-02
   2.415234350195108E-02   2.445614258428313E-02   2.476376298865038E-02
   2.507525278136688E-02   2.539066063334644E-02   2.571003582770769E-02
   2.603342826747449E-02   2.636088848337350E-02   2.669246764172969E-02
   2.702821755246112E-02   2.736819067717448E-02   2.771244013736216E-02
   2.806101972270271E-02   2.841398389946551E-02   2.877138781902129E-02
   2.913328732645965E-02   2.949973896931491E-02   2.987080000640180E-02
   3.024652841676231E-02   3.062698290872496E-02   3.101222292907820E-02
   3.140230867235896E-02   3.179730109025828E-02   3.219726190114506E-02
   3.260225359970970E-02   3.301233946672913E-02   3.342758357895435E-02
   3.384805081912275E-02   3.427380688609602E-02   3.470491830512581E-02
   3.514145243824852E-02   3.558347749481054E-02   3.603106254212628E-02
   3.648427751626999E-02   3.694319323300342E-02   3.740788139884105E-02
   3.787841462225418E-02   3.835486642501627E-02   3.883731125369085E-02
   3.932582449126390E-02   3.982048246892277E-02   4.032136247798280E-02
   4.082854278196446E-02   4.134210262882212E-02   4.186212226332667E-02
   4.238868293960404E-02   4.292186693383118E-02   4.346175755709193E-02
   4.400843916839463E-02   4.456199718785320E-02   4.512251811003454E-02
   4.569008951747298E-02   4.626480009435573E-02   4.684673964037976E-02
   4.743599908478297E-02   4.803267050055254E-02   4.863684711881096E-02
   4.924862334338413E-02   4.986809476555189E-02   5.049535817898412E-02
   5.113051159486550E-02   5.177365425720933E-02   5.242488665836516E-02
   5.308431055472071E-02   5.375202898260120E-02   5.442814627436969E-02
   5.511276807472837E-02   5.580600135722652E-02   5.650795444097503E-02
   5.721873700757117E-02   5.793846011823727E-02   5.866723623117345E-02
   5.940517921913017E-02   6.015240438720076E-02   6.090902849083777E-02
   6.167516975409696E-02   6.245094788810922E-02   6.323648410978644E-02
   6.403190116076156E-02   6.483732332656685E-02   6.565287645605457E-02
   6.647868798106027E-02   6.731488693631493E-02   6.816160397960673E-02
   6.901897141219607E-02   6.988712319948889E-02   7.076619499196794E-02
   7.165632414638945E-02   7.255764974724488E-02   7.347031262849286E-02
   7.439445539556569E-02   7.533022244765065E-02   7.627776000025359E-02
   7.723721610804499E-02   7.820874068799348E-02   7.919248554279154E-02
   8.018860438457387E-02   8.119725285893628E-02   8.221858856925512E-02
   8.325277110131281E-02   8.429996204823428E-02   8.536032503573525E-02
   8.643402574768999E-02   8.752123195201934E-02   8.862211352690437E-02
   8.973684248733123E-02   9.086559301196760E-02   9.200854147037958E-02
   9.316586645058932E-02   9.433774878697919E-02   9.552437158854885E-02
   9.672592026752488E-02   9.794258256833314E-02   9.917454859693361E-02
   1.004220108505244E-01   1.016851642476208E-01   1.029642061585109E-01
   1.042593364360956E-01   1.055707574471158E-01   1.068986741037723E-01
   1.082432938957448E-01   1.096048269226110E-01   1.109834859266766E-01
   1.123794863262161E-01   1.137930462491317E-01   1.152243865670377E-01
   1.166737309297704E-01   1.181413058003355E-01   1.196273404902924E-01
   1.211320671955844E-01   1.226557210328211E-01   1.241985400760139E-01
   1.257607653937775E-01   1.273426410869964E-01   1.289444143269654E-01
   1.305663353940128E-01   1.322086577166045E-01   1.338716379109450E-01
   1.355555358210734E-01   1.372606145594634E-01   1.389871405481374E-01
   1.407353835602934E-01   1.425056167624590E-01   1.442981167571740E-01
   1.461131636262088E-01   1.479510409743300E-01   1.498120359736119E-01
   1.516964394083097E-01   1.536045457202940E-01   1.555366530550578E-01
   1.574930633083035E-01   1.594740821731129E-01   1.614800191877144E-01
   1.635111877838480E-01   1.655679053357386E-01   1.676504932096887E-01
   1.697592768142901E-01   1.718945856512716E-01   1.740567533669838E-01
   1.762461178045304E-01   1.784630210565598E-01   1.807078095187148E-01
   1.829808339437601E-01   1.852824494963867E-01   1.876130158087069E-01
   1.899728970364492E-01   1.923624619158560E-01   1.947820838213015E-01
   1.972321408236318E-01   1.997130157492373E-01   2.022250962398732E-01
   2.047687748132264E-01   2.073444489242496E-01   2.099525210272630E-01
   2.125933986388382E-01   2.152674944014759E-01   2.179752261480785E-01
   2.207170169672411E-01   2.234932952693568E-01   2.263044948535589E-01
   2.291510549755024E-01   2.320334204159968E-01   2.349520415505074E-01
   2.379073744195234E-01   2.408998807998187E-01   2.439300282766041E-01
   2.469982903165868E-01   2.501051463419537E-01   2.532510818052791E-01
   2.564365882653799E-01   2.596621634641219E-01   2.629283114041914E-01
   2.662355424278501E-01   2.695843732966732E-01   2.729753272722975E-01
   2.764089341981811E-01   2.798857305823911E-01   2.834062596814371E-01
   2.869710715851523E-01   2.905807233026499E-01   2.942357788493550E-01
   2.979368093351323E-01   3.016843930535258E-01   3.054791155721150E-01
   3.093215698240145E-01   3.132123562005191E-01   3.171520826449151E-01
   3.211413647474757E-01   3.251808258416448E-01   3.292710971014372E-01
   3.334128176400595E-01   3.376066346097711E-01   3.418532033030071E-01
   3.461531872547643E-01   3.505072583462843E-01   3.549160969100340E-01
   3.593803918360077E-01   3.639008406793716E-01   3.684781497694529E-01
   3.731130343201103E-01   3.778062185414853E-01   3.825584357531594E-01
   3.873704284987418E-01   3.922429486618877E-01   3.971767575837866E-01
   4.021726261821209E-01   4.072313350715221E-01   4.123536746855475E-01
   4.175404454001819E-01   4.227924576589027E-01   4.281105320993114E-01
   4.334954996813574E-01   4.389482018171829E-01   4.444694905025887E-01
   4.500602284501656E-01   4.557212892240933E-01   4.614535573766337E-01
   4.672579285863495E-01   4.731353097980497E-01   4.790866193645072E-01
   4.851127871899505E-01   4.912147548753611E-01   4.973934758656059E-01
   5.036499155984088E-01   5.099850516552076E-01   5.163998739139011E-01
   5.228953847035164E-01   5.294725989608315E-01   5.361325443889536E-01
   5.428762616179067E-01   5.497048043672289E-01   5.566192396106157E-01
   5.636206477426431E-01   5.707101227475746E-01   5.778887723703039E-01
   5.851577182894412E-01   5.925180962925727E-01   5.999710564537384E-01
   6.075177633131245E-01   6.151593960590328E-01   6.228971487121279E-01
   6.307322303120022E-01   6.386658651060987E-01   6.466992927409927E-01
   6.548337684560973E-01   6.630705632797940E-01   6.714109642280296E-01
   6.798562745054232E-01   6.884078137088854E-01   6.970669180338162E-01
   7.058349404828846E-01   7.147132510774346E-01   7.237032370715620E-01
   7.328063031688665E-01   7.420238717419469E-01   7.513573830546478E-01
   7.608082954870979E-01   7.703780857635959E-01   7.800682491833394E-01
   7.898802998540789E-01   7.998157709286960E-01   8.098762148447571E-01
   8.200632035670953E-01   8.303783288334208E-01   8.408232024030443E-01
   8.513994563087129E-01   8.621087431116140E-01   8.729527361596016E-01
   8.839331298486486E-01   8.950516398876104E-01   9.063100035663031E-01
   9.177099800269534E-01   9.292533505390799E-01   9.409419187778072E-01
   9.527775111057047E-01   9.647619768581550E-01   9.768971886323113E-01
   9.891850425797059E-01   1.001627458702514E+00   1.014226381153572E+00
   1.026983778540146E+00   1.039901644231530E+00   1.052981996670524E+00
   1.066226879688803E+00   1.079638362826290E+00   1.093218541654512E+00
   1.106969538104035E+00   1.120893500796037E+00   1.134992605378011E+00
   1.149269054863735E+00   1.163725079977491E+00   1.178362939502608E+00
   1.193184920634422E+00   1.208193339337637E+00   1.223390540708212E+00
   1.238778899339782E+00   1.254360819694687E+00   1.270138736479688E+00
   1.286115115026380E+00   1.302292451676415E+00   1.318673274171563E+00
   1.335260142048658E+00   1.352055647039559E+00   1.369062413476086E+00
   1.386283098700098E+00   1.403720393478699E+00   1.421377022424670E+00
   1.439255744422212E+00   1.457359353058005E+00   1.475690677057735E+00
   1.494252580728073E+00   1.513047964404228E+00   1.532079764903143E+00
   1.551350955982363E+00   1.570864548804703E+00   1.590623592408745E+00
   1.610631174185247E+00   1.630890420359573E+00   1.651404496480150E+00
   1.672176607913110E+00   1.693210000343129E+00   1.714507960280561E+00
   1.736073815574984E+00   1.757910935935157E+00   1.780022733455567E+00
   1.802412663149567E+00   1.825084223489219E+00   1.848040956951956E+00
   1.871286450574083E+00   1.894824336511273E+00   1.918658292606097E+00
   1.942792042962678E+00   1.967229358528616E+00   1.991974057684180E+00
   2.017030006838960E+00   2.042401121035991E+00   2.068091364563478E+00
   2.094104751574247E+00   2.120445346712934E+00   2.147117265751124E+00
   2.174124676230437E+00   2.201471798113697E+00   2.229162904444346E+00
   2.257202322014078E+00   2.285594432038937E+00   2.314343670843885E+00
   2.343454530555968E+00   2.372931559806248E+00   2.402779364440511E+00
   2.433002608238961E+00   2.463606013644934E+00   2.494594362502780E+00
   2.525972496805064E+00   2.557745319449100E+00   2.589917795003073E+00
   2.622494950481749E+00   2.655481876131940E+00   2.688883726227902E+00
   2.722705719876658E+00   2.756953141833532E+00   2.791631343327888E+00
   2.826745742899251E+00   2.862301827244008E+00   2.898305152072663E+00
   2.934761342977978E+00   2.971676096313957E+00   3.009055180085901E+00
   3.046904434851710E+00   3.085229774634434E+00   3.124037187846394E+00
   3.163332738224862E+00   3.203122565779524E+00   3.243412887751898E+00
   3.284209999586751E+00   3.325520275915818E+00   3.367350171553825E+00
   3.409706222507060E+00   3.452595046994668E+00   3.496023346482722E+00
   3.539997906731379E+00   3.584525598855151E+00   3.629613380396511E+00
   3.675268296413070E+00   3.721497480578329E+00   3.768308156296374E+00
   3.815707637830529E+00   3.863703331446207E+00   3.912302736568194E+00
   3.961513446952406E+00   4.011343151872465E+00   4.061799637321153E+00
   4.112890787226960E+00   4.164624584686021E+00   4.217009113209426E+00
   4.270052557986340E+00   4.323763207162939E+00   4.378149453137413E+00
   4.433219793871361E+00   4.488982834217550E+00   4.545447287264492E+00
   4.602621975697861E+00   4.660515833179032E+00   4.719137905741039E+00
   4.778497353201970E+00   4.838603450596267E+00   4.899465589623944E+00
   4.961093280118030E+00   5.023496151530567E+00   5.086683954437154E+00
   5.150666562060561E+00   5.215453971813411E+00   5.281056306860271E+00
   5.347483817699481E+00   5.414746883764736E+00   5.482856015046968E+00
   5.551821853736517E+00   5.621655175885974E+00   5.692366893094018E+00
   5.763968054210308E+00   5.836469847061952E+00   5.909883600201602E+00
   5.984220784677523E+00   6.059493015826053E+00   6.135712055086429E+00
   6.212889811838616E+00   6.291038345264135E+00   6.370169866230308E+00
   6.450296739198302E+00   6.531431484155015E+00   6.613586778569428E+00
   6.696775459373452E+00   6.781010524967686E+00   6.866305137252530E+00
   6.952672623684665E+00   7.040126479359572E+00   7.128680369120142E+00
   7.218348129691785E+00   7.309143771844550E+00   7.401081482582222E+00
   7.494175627359163E+00   7.588440752324911E+00   7.683891586597000E+00
   7.780543044562507E+00   7.878410228208351E+00   7.977508429481102E+00
   8.077853132676340E+00   8.179460016858066E+00   8.282344958308681E+00
   8.386524033009577E+00   8.492013519153147E+00   8.598829899686237E+00
   8.706989864885593E+00   8.816510314965859E+00   8.927408362720154E+00
   9.039701336194078E+00   9.153406781393214E+00   9.268542465024675E+00
   9.385126377273309E+00   9.503176734612564E+00   9.622711982650964E+00
   9.743750799014233E+00   9.866312096263643E+00   9.990415024851281E+00
   1.011607897611219E+01   1.024332358529444E+01   1.037216873462712E+01
   1.050263455642690E+01   1.063474143624392E+01   1.076851001604688E+01
   1.090396119744855E+01   1.104111614497163E+01   1.117999628935566E+01
   1.132062333090581E+01   1.146301924288337E+01   1.160720627493933E+01
   1.175320695659082E+01   1.190104410074133E+01   1.205074080724547E+01
   1.220232046651815E+01   1.235580676318953E+01   1.251122367980576E+01
   1.266859550057623E+01   1.282794681516814E+01   1.298930252254856E+01
   1.315268783487507E+01   1.331812828143515E+01   1.348564971263512E+01
   1.365527830403949E+01   1.382704056046071E+01   1.400096332010085E+01
   1.417707375874495E+01   1.435539939400731E+01   1.453596808963130E+01
   1.471880805984292E+01   1.490394787375955E+01   1.509141645985379E+01
   1.528124311047358E+01   1.547345748641934E+01   1.566808962157832E+01
   1.586516992761765E+01   1.606472919873613E+01   1.626679861647584E+01
   1.647140975459446E+01   1.667859458399855E+01   1.688838547773925E+01