<UPF version="2.0.1">
  <PP_INFO>
    Generated using "atomic" code by A. Dal Corso  v.7.2
    Author: ADC
    Generation date: 22Sep2023
    Pseudopotential type: PAW
    Element: Xe
    Functional:  SLA  PZ   NOGX NOGC
    Suggested minimum cutoff for wavefunctions:  45. Ry
    Suggested minimum cutoff for charge density: 212. Ry
    The Pseudo was generated with a Scalar-Relativistic Calculation
    Local Potential by smoothing AE potential with Bessel fncs, cutoff radius:   2.1000
    Valence configuration: 
    nl pn  l   occ       Rcut    Rcut US       E pseu
    5S  1  0  2.00      1.700      1.800    -1.468838
    5P  2  1  6.00      1.600      2.200    -0.616572
    4D  3  2 10.00      1.400      1.650    -4.369452
    Generation configuration:
    5S  1  0  2.00      1.700      1.800    -1.468834
    5S  1  0  0.00      1.700      1.800     3.000000
    5P  2  1  6.00      1.600      2.200    -0.616569
    5P  2  1  0.00      1.600      2.200     3.000000
    4D  3  2 10.00      1.400      1.650    -4.369451
    4D  3  2  0.00      1.400      1.650     1.050000
    Pseudization used: troullier-martins
    <PP_INPUTFILE>
@input
title='Xe',
zed=54.,
rel=1,
config='[Kr] 5s2 5p6 4d10',
iswitch=3,
dft='LDA'
/
@inputp
lpaw=.true.,
pseudotype=3,
file_pseudopw='Xe.pz-dn-kjpaw_psl.1.0.0.UPF',
author='ADC',
lloc=-1,
rcloc=2.1,
which_augfun='PSQ',
rmatch_augfun_nc=.true.,
nlcc=.true.,
new_core_ps=.true.,
rcore=1.2,
tm=.true.
/
6
5S  1  0  2.00  0.00  1.70  1.80  0.0
5S  1  0  0.00  3.00  1.70  1.80  0.0
5P  2  1  6.00  0.00  1.60  2.20  0.0
5P  2  1  0.00  3.00  1.60  2.20  0.0
4D  3  2 10.00  0.00  1.40  1.65  0.0
4D  3  2  0.00  1.05  1.40  1.65  0.0
    </PP_INPUTFILE>
  </PP_INFO>
    <!-- END OF HUMAN READABLE SECTION -->
  <PP_HEADER generated="Generated using 'atomic' code by A. Dal Corso  v.7.2" author="ADC" date="22Sep2023" comment="" element="Xe" pseudo_type="PAW" relativistic="scalar" is_ultrasoft="true" is_paw="true" is_coulomb="false" has_so="false" has_wfc="true" has_gipaw="false" paw_as_gipaw="false" core_correction="true" functional=" SLA  PZ   NOGX NOGC" z_valence="18.000000000000000" total_psenergy="-581.46631626270039" wfc_cutoff="44.546223617210963" rho_cutoff="211.88011162971097" l_max="2" l_max_rho="4" l_local="-1" mesh_size="1249" number_of_wfc="3" number_of_proj="6"/>
  <PP_MESH mesh="1249" dx="1.2500000000000001E-002" xmin="-7.0000000000000000" rmax="100.00000000000000" zmesh="54.000000000000000">
    <PP_R>
   1.688670306582437E-05   1.709911164201893E-05   1.731419198919597E-05
   1.753197771409730E-05   1.775250284618555E-05   1.797580184296127E-05
   1.820190959534701E-05   1.843086143313910E-05   1.866269313052797E-05
   1.889744091168805E-05   1.913514145643772E-05   1.937583190597071E-05
   1.961954986865945E-05   1.986633342593142E-05   2.011622113821959E-05
   2.036925205098738E-05   2.062546570082969E-05   2.088490212165060E-05
   2.114760185091866E-05   2.141360593600107E-05   2.168295594057730E-05
   2.195569395113357E-05   2.223186258353891E-05   2.251150498970398E-05
   2.279466486432372E-05   2.308138645170462E-05   2.337171455267805E-05
   2.366569453160045E-05   2.396337232344163E-05   2.426479444096222E-05
   2.457000798198132E-05   2.487906063673568E-05   2.519200069533137E-05
   2.550887705528920E-05   2.582973922918516E-05   2.615463735238670E-05
   2.648362219088656E-05   2.681674514923510E-05   2.715405827857228E-05
   2.749561428476087E-05   2.784146653662171E-05   2.819166907427281E-05
   2.854627661757315E-05   2.890534457467282E-05   2.926892905067069E-05
   2.963708685638082E-05   3.000987551720938E-05   3.038735328214307E-05
   3.076957913285063E-05   3.115661279289891E-05   3.154851473708471E-05
   3.194534620088412E-05   3.234716919002073E-05   3.275404649015408E-05
   3.316604167669018E-05   3.358321912471510E-05   3.400564401905384E-05
   3.443338236445558E-05   3.486650099590699E-05   3.530506758907549E-05
   3.574915067088350E-05   3.619881963021606E-05   3.665414472876290E-05
   3.711519711199702E-05   3.758204882029137E-05   3.805477280017516E-05
   3.853344291573202E-05   3.901813396014137E-05   3.950892166736496E-05
   4.000588272398064E-05   4.050909478116454E-05   4.101863646682439E-05
   4.153458739788525E-05   4.205702819272975E-05   4.258604048379511E-05
   4.312170693032803E-05   4.366411123130061E-05   4.421333813848840E-05
   4.476947346971303E-05   4.533260412225154E-05   4.590281808641404E-05
   4.648020445929256E-05   4.706485345868256E-05   4.765685643717963E-05
   4.825630589645368E-05   4.886329550170225E-05   4.947792009628612E-05
   5.010027571654864E-05   5.073045960682164E-05   5.136857023462016E-05
   5.201470730602801E-05   5.266897178127718E-05   5.333146589052302E-05
   5.400229314981792E-05   5.468155837728605E-05   5.536936770950112E-05
   5.606582861807066E-05   5.677104992642857E-05   5.748514182683905E-05
   5.820821589761445E-05   5.894038512054938E-05   5.968176389857456E-05
   6.043246807363238E-05   6.119261494477744E-05   6.196232328650504E-05
   6.274171336730948E-05   6.353090696847657E-05   6.433002740311210E-05
   6.513919953540979E-05   6.595854980016166E-05   6.678820622251352E-05
   6.762829843796932E-05   6.847895771264689E-05   6.934031696378852E-05
   7.021251078052978E-05   7.109567544492896E-05   7.198994895326168E-05
   7.289547103758303E-05   7.381238318756094E-05   7.474082867258442E-05
   7.568095256414938E-05   7.663290175852661E-05   7.759682499971444E-05
   7.857287290268037E-05   7.956119797689518E-05   8.056195465016239E-05
   8.157529929274826E-05   8.260139024181485E-05   8.364038782616047E-05
   8.469245439127173E-05   8.575775432468973E-05   8.683645408169650E-05
   8.792872221132367E-05   8.903472938268862E-05   9.015464841166229E-05
   9.128865428787133E-05   9.243692420204105E-05   9.359963757368174E-05
   9.477697607912317E-05   9.596912367990231E-05   9.717626665150713E-05
   9.839859361248287E-05   9.963629555390408E-05   1.008895658692171E-04
   1.021586003844587E-04   1.034435973888537E-04   1.047447576657983E-04
   1.060622845242331E-04   1.073963838304100E-04   1.087472640400602E-04
   1.101151362309647E-04   1.115002141359363E-04   1.129027141762155E-04
   1.143228554952871E-04   1.157608599931215E-04   1.172169523608472E-04
   1.186913601158589E-04   1.201843136373683E-04   1.216960462024002E-04
   1.232267940222440E-04   1.247767962793605E-04   1.263462951647561E-04
   1.279355359158247E-04   1.295447668546669E-04   1.311742394268912E-04
   1.328242082409018E-04   1.344949311076832E-04   1.361866690810822E-04
   1.378996864985989E-04   1.396342510226903E-04   1.413906336825919E-04
   1.431691089166680E-04   1.449699546152921E-04   1.467934521642684E-04
   1.486398864887993E-04   1.505095460980039E-04   1.524027231300006E-04
   1.543197133975520E-04   1.562608164342876E-04   1.582263355415064E-04
   1.602165778355673E-04   1.622318542958783E-04   1.642724798134863E-04
   1.663387732402799E-04   1.684310574388115E-04   1.705496593327433E-04
   1.726949099579320E-04   1.748671445141521E-04   1.770667024174723E-04
   1.792939273532906E-04   1.815491673300338E-04   1.838327747335373E-04
   1.861451063821034E-04   1.884865235822568E-04   1.908573921851991E-04
   1.932580826439723E-04   1.956889700713455E-04   1.981504342984246E-04
   2.006428599340028E-04   2.031666364246572E-04   2.057221581155983E-04
   2.083098243122901E-04   2.109300393428403E-04   2.135832126211782E-04
   2.162697587110269E-04   2.189900973906781E-04   2.217446537185856E-04
   2.245338580997796E-04   2.273581463531192E-04   2.302179597793906E-04
   2.331137452302592E-04   2.360459551780939E-04   2.390150477866643E-04
   2.420214869827311E-04   2.450657425285359E-04   2.481482900952005E-04
   2.512696113370543E-04   2.544301939668915E-04   2.576305318321781E-04
   2.608711249922173E-04   2.641524797962825E-04   2.674751089627385E-04
   2.708395316591522E-04   2.742462735834148E-04   2.776958670458837E-04
   2.811888510525545E-04   2.847257713892858E-04   2.883071807070757E-04
   2.919336386084164E-04   2.956057117347338E-04   2.993239738549236E-04
   3.030890059550079E-04   3.069013963289121E-04   3.107617406703881E-04
   3.146706421660941E-04   3.186287115898404E-04   3.226365673980280E-04
   3.266948358262808E-04   3.308041509872969E-04   3.349651549699317E-04
   3.391784979395218E-04   3.434448382394793E-04   3.477648424941557E-04
   3.521391857130047E-04   3.565685513960543E-04   3.610536316407036E-04
   3.655951272498663E-04   3.701937478414709E-04   3.748502119593406E-04
   3.795652471854677E-04   3.843395902536989E-04   3.891739871648524E-04
   3.940691933032810E-04   3.990259735549032E-04   4.040451024267180E-04
   4.091273641678230E-04   4.142735528919556E-04   4.194844727015735E-04
   4.247609378134987E-04   4.301037726861403E-04   4.355138121483168E-04
   4.409919015297015E-04   4.465388967929051E-04   4.521556646672229E-04
   4.578430827840630E-04   4.636020398140768E-04   4.694334356060175E-04
   4.753381813273414E-04   4.813171996065805E-04   4.873714246775058E-04
   4.935018025251015E-04   4.997092910333793E-04   5.059948601350476E-04
   5.123594919630663E-04   5.188041810041078E-04   5.253299342539463E-04
   5.319377713748043E-04   5.386287248546755E-04   5.454038401686535E-04
   5.522641759422909E-04   5.592108041170093E-04   5.662448101175944E-04
   5.733672930217943E-04   5.805793657320535E-04   5.878821551494065E-04
   5.952768023495569E-04   6.027644627611746E-04   6.103463063464327E-04
   6.180235177838162E-04   6.257972966532326E-04   6.336688576234450E-04
   6.416394306418709E-04   6.497102611267599E-04   6.578826101617956E-04
   6.661577546931420E-04   6.745369877289673E-04   6.830216185414817E-04
   6.916129728715115E-04   7.003123931356497E-04   7.091212386360123E-04
   7.180408857726298E-04   7.270727282585152E-04   7.362181773374318E-04
   7.454786620044047E-04   7.548556292290042E-04   7.643505441814360E-04
   7.739648904614800E-04   7.837001703303022E-04   7.935579049451886E-04
   8.035396345972292E-04   8.136469189519893E-04   8.238813372932134E-04
   8.342444887695893E-04   8.447379926446187E-04   8.553634885496319E-04
   8.661226367399811E-04   8.770171183544617E-04   8.880486356779903E-04
   8.992189124075921E-04   9.105296939217330E-04   9.219827475530360E-04
   9.335798628644329E-04   9.453228519287855E-04   9.572135496120261E-04
   9.692538138598590E-04   9.814455259880704E-04   9.937905909764839E-04
   1.006290937766620E-03   1.018948519563097E-03   1.031765314138822E-03
   1.044743324144025E-03   1.057884577419172E-03   1.071191127311824E-03
   1.084665052997473E-03   1.098308459804421E-03   1.112123479542740E-03
   1.126112270837370E-03   1.140277019465412E-03   1.154619938697657E-03
   1.169143269644414E-03   1.183849281605696E-03   1.198740272425788E-03
   1.213818568852303E-03   1.229086526899734E-03   1.244546532217588E-03
   1.260201000463152E-03   1.276052377678937E-03   1.292103140674883E-03
   1.308355797415363E-03   1.324812887411060E-03   1.341476982115768E-03
   1.358350685328188E-03   1.375436633598776E-03   1.392737496641712E-03
   1.410255977752043E-03   1.427994814228087E-03   1.445956777799133E-03
   1.464144675058531E-03   1.482561347902233E-03   1.501209673972838E-03
   1.520092567109237E-03   1.539212977801899E-03   1.558573893653896E-03
   1.578178339847720E-03   1.598029379617972E-03   1.618130114730007E-03
   1.638483685964580E-03   1.659093273608606E-03   1.679962097952084E-03
   1.701093419791276E-03   1.722490540938213E-03   1.744156804736605E-03
   1.766095596584253E-03   1.788310344462016E-03   1.810804519469445E-03
   1.833581636367154E-03   1.856645254125995E-03   1.879998976483168E-03
   1.903646452505304E-03   1.927591377158642E-03   1.951837491886377E-03
   1.976388585193263E-03   2.001248493237580E-03   2.026421100430537E-03
   2.051910340043222E-03   2.077720194821180E-03   2.103854697606736E-03
   2.130317931969119E-03   2.157114032842538E-03   2.184247187172270E-03
   2.211721634568882E-03   2.239541667970679E-03   2.267711634314481E-03
   2.296235935214838E-03   2.325119027651802E-03   2.354365424667326E-03
   2.383979696070449E-03   2.413966469151328E-03   2.444330429404265E-03
   2.475076321259824E-03   2.506208948826161E-03   2.537733176639675E-03
   2.569653930425098E-03   2.601976197865152E-03   2.634705029379883E-03
   2.667845538915801E-03   2.701402904744952E-03   2.735382370274016E-03
   2.769789244863613E-03   2.804628904657902E-03   2.839906793424601E-03
   2.875628423405611E-03   2.911799376178290E-03   2.948425303527599E-03
   2.985511928329201E-03   3.023065045443674E-03   3.061090522621973E-03
   3.099594301422270E-03   3.138582398138337E-03   3.178060904739608E-03
   3.218035989823058E-03   3.258513899577065E-03   3.299500958757379E-03
   3.341003571675386E-03   3.383028223198792E-03   3.425581479764894E-03
   3.468669990406612E-03   3.512300487791395E-03   3.556479789273226E-03
   3.601214797957846E-03   3.646512503781371E-03   3.692379984602503E-03
   3.738824407308435E-03   3.785853028934705E-03   3.833473197799126E-03
   3.881692354649960E-03   3.930518033828576E-03   3.979957864446679E-03
   4.030019571578389E-03   4.080710977467296E-03   4.132040002748701E-03
   4.184014667687239E-03   4.236643093430047E-03   4.289933503275721E-03
   4.343894223959219E-03   4.398533686952928E-03   4.453860429784114E-03
   4.509883097368904E-03   4.566610443363085E-03   4.624051331529884E-03
   4.682214737124935E-03   4.741109748298705E-03   4.800745567516512E-03
   4.861131512996434E-03   4.922277020165310E-03   4.984191643133034E-03
   5.046885056185419E-03   5.110367055295800E-03   5.174647559655693E-03
   5.239736613224686E-03   5.305644386299817E-03   5.372381177104729E-03
   5.439957413398758E-03   5.508383654106309E-03   5.577670590966709E-03
   5.647829050204801E-03   5.718869994222591E-03   5.790804523312109E-03
   5.863643877389878E-03   5.937399437753165E-03   6.012082728858329E-03
   6.087705420121559E-03   6.164279327742216E-03   6.241816416549157E-03
   6.320328801870258E-03   6.399828751425454E-03   6.480328687243619E-03
   6.561841187603497E-03   6.644378988999107E-03   6.727954988129842E-03
   6.812582243915599E-03   6.898273979537278E-03   6.985043584502909E-03
   7.072904616739799E-03   7.161870804712991E-03   7.251956049570352E-03
   7.343174427314685E-03   7.435540191003088E-03   7.529067772974062E-03
   7.623771787102569E-03   7.719667031083489E-03   7.816768488743806E-03
   7.915091332383830E-03   8.014650925147917E-03   8.115462823424992E-03
   8.217542779279257E-03   8.320906742911513E-03   8.425570865151364E-03
   8.531551499980854E-03   8.638865207089791E-03   8.747528754463234E-03
   8.857559121001559E-03   8.968973499173381E-03   9.081789297701969E-03
   9.196024144285367E-03   9.311695888350758E-03   9.428822603843505E-03
   9.547422592051191E-03   9.667514384463267E-03   9.789116745666624E-03
   9.912248676277598E-03   1.003692941591088E-02   1.016317844618568E-02
   1.029101549376985E-02   1.042046053346215E-02   1.055153379131339E-02
   1.068425574778679E-02   1.081864714095807E-02   1.095472896975584E-02
   1.109252249724270E-02   1.123204925393766E-02   1.137333104118033E-02
   1.151638993453741E-02   1.166124828725204E-02   1.180792873373655E-02
   1.195645419310911E-02   1.210684787277495E-02   1.225913327205248E-02
   1.241333418584518E-02   1.256947470835953E-02   1.272757923686986E-02
   1.288767247553041E-02   1.304977943923544E-02   1.321392545752783E-02
   1.338013617855690E-02   1.354843757308596E-02   1.371885593855033E-02
   1.389141790316633E-02   1.406615043009202E-02   1.424308082164021E-02
   1.442223672354453E-02   1.460364612927920E-02   1.478733738443291E-02
   1.497333919113802E-02   1.516168061255523E-02   1.535239107741482E-02
   1.554550038461495E-02   1.574103870787775E-02   1.593903660046404E-02
   1.613952499994738E-02   1.634253523304807E-02   1.654809902052807E-02
   1.675624848214740E-02   1.696701614168293E-02   1.718043493201025E-02
   1.739653820024955E-02   1.761535971297619E-02   1.783693366149671E-02
   1.806129466719136E-02   1.828847778692374E-02   1.851851851851852E-02
   1.875145280630805E-02   1.898731704674869E-02   1.922614809410788E-02
   1.946798326622268E-02   1.971286035033073E-02   1.996081760897466E-02
   2.021189378598059E-02   2.046612811251200E-02   2.072356031319966E-02
   2.098423061234864E-02   2.124817974022357E-02   2.151544893941266E-02
   2.178607997127206E-02   2.206011512245109E-02   2.233759721149964E-02
   2.261856959555870E-02   2.290307617713491E-02   2.319116141096047E-02
   2.348287031093927E-02   2.377824845718040E-02   2.407734200312021E-02
   2.438019768273374E-02   2.468686281783710E-02   2.499738532548156E-02
   2.531181372544067E-02   2.563019714779170E-02   2.595258534059211E-02
   2.627902867765293E-02   2.660957816640973E-02   2.694428545589262E-02
   2.728320284479659E-02   2.762638328965316E-02   2.797388041310506E-02
   2.832574851228481E-02   2.868204256729876E-02   2.904281824981795E-02
   2.940813193177674E-02   2.977804069418118E-02   3.015260233602798E-02
   3.053187538333571E-02   3.091591909828969E-02   3.130479348850170E-02
   3.169855931638640E-02   3.209727810865549E-02   3.250101216593145E-02
   3.290982457248220E-02   3.332377920607795E-02   3.374294074797241E-02
   3.416737469300928E-02   3.459714735985597E-02   3.503232590136612E-02
   3.547297831507216E-02   3.591917345381028E-02   3.637098103647868E-02
   3.682847165893133E-02   3.729171680500883E-02   3.776078885770770E-02
   3.823576111049051E-02   3.871670777873809E-02   3.920370401134583E-02
   3.969682590246592E-02   4.019615050339709E-02   4.070175583462413E-02
   4.121372089800869E-02   4.173212568913349E-02   4.225705120980193E-02
   4.278857948069453E-02   4.332679355418504E-02   4.387177752731744E-02
   4.442361655494626E-02   4.498239686304238E-02   4.554820576216576E-02
   4.612113166110800E-02   4.670126408070648E-02   4.728869366783198E-02
   4.788351220955272E-02   4.848581264747596E-02   4.909568909227052E-02
   4.971323683837171E-02   5.033855237887121E-02   5.097173342059458E-02
   5.161287889936762E-02   5.226208899547592E-02   5.291946514931788E-02
   5.358511007725483E-02   5.425912778766120E-02   5.494162359717535E-02
   5.563270414715615E-02   5.633247742034566E-02   5.704105275774132E-02
   5.775854087568139E-02   5.848505388314387E-02   5.922070529926434E-02
   5.996561007107339E-02   6.071988459145691E-02   6.148364671734354E-02
   6.225701578811908E-02   6.304011264427441E-02   6.383305964628662E-02
   6.463598069373780E-02   6.544900124467544E-02   6.627224833521445E-02
   6.710585059938780E-02   6.794993828924531E-02   6.880464329520562E-02
   6.967009916666508E-02   7.054644113286412E-02   7.143380612401802E-02
   7.233233279271213E-02   7.324216153556624E-02   7.416343451517277E-02
   7.509629568230881E-02   7.604089079842984E-02   7.699736745844464E-02
   7.796587511377703E-02   7.894656509571893E-02   7.993959063907490E-02
   8.094510690610661E-02   8.196327101077662E-02   8.299424204329749E-02
   8.403818109499088E-02   8.509525128345723E-02   8.616561777806424E-02
   8.724944782575453E-02   8.834691077717782E-02   8.945817811315340E-02
   9.058342347146307E-02   9.172282267398357E-02   9.287655375415857E-02
   9.404479698481633E-02   9.522773490633873E-02   9.642555235518241E-02
   9.763843649276092E-02   9.886657683468851E-02   1.001101652803920E-01
   1.013693961430964E-01   1.026444661801856E-01   1.039355746239473E-01
   1.052429232127027E-01   1.065667162223283E-01   1.079071604981755E-01
   1.092644654873892E-01   1.106388432716356E-01   1.120305086002398E-01
   1.134396789237405E-01   1.148665744278680E-01   1.163114180679475E-01
   1.177744356037376E-01   1.192558556347049E-01   1.207559096357428E-01
   1.222748319933414E-01   1.238128600422087E-01   1.253702341023569E-01
   1.269471975166515E-01   1.285439966888340E-01   1.301608811220241E-01
   1.317981034577037E-01   1.334559195151938E-01   1.351345883316266E-01
   1.368343722024195E-01   1.385555367222608E-01   1.402983508266083E-01
   1.420630868337116E-01   1.438500204871626E-01   1.456594309989795E-01
   1.474916010932367E-01   1.493468170502384E-01   1.512253687512527E-01
   1.531275497238051E-01   1.550536571875419E-01   1.570039921006737E-01
   1.589788592069981E-01   1.609785670835185E-01   1.630034281886595E-01
   1.650537589110877E-01   1.671298796191506E-01   1.692321147109320E-01
   1.713607926649424E-01   1.735162460914433E-01   1.756988117844172E-01
   1.779088307741947E-01   1.801466483807387E-01   1.824126142676034E-01
   1.847070824965690E-01   1.870304115829640E-01   1.893829645516854E-01
   1.917651089939203E-01   1.941772171245846E-01   1.966196658404817E-01
   1.990928367791918E-01   2.015971163787064E-01   2.041328959378075E-01
   2.067005716772105E-01   2.093005448014739E-01   2.119332215616874E-01
   2.145990133189519E-01   2.172983366086521E-01   2.200316132055443E-01
   2.227992701896581E-01   2.256017400130273E-01   2.284394605672642E-01
   2.313128752519780E-01   2.342224330440597E-01   2.371685885678341E-01
   2.401518021660951E-01   2.431725399720376E-01   2.462312739820887E-01
   2.493284821296613E-01   2.524646483598290E-01   2.556402627049462E-01
   2.588558213612157E-01   2.621118267662186E-01   2.654087876774250E-01
   2.687472192516838E-01   2.721276431257211E-01   2.755505874976454E-01
   2.790165872094776E-01   2.825261838307255E-01   2.860799257430005E-01
   2.896783682257069E-01   2.933220735428043E-01   2.970116110306606E-01
   3.007475571870159E-01   3.045304957610567E-01   3.083610178446323E-01
   3.122397219646120E-01   3.161672141764048E-01   3.201441081586605E-01
   3.241710253091535E-01   3.282485948418823E-01   3.323774538853825E-01
   3.365582475822790E-01   3.407916291900939E-01   3.450782601833151E-01
   3.494188103567571E-01   3.538139579302161E-01   3.582643896544411E-01
   3.627708009184448E-01   3.673338958581543E-01   3.719543874664383E-01
   3.766329977045116E-01   3.813704576147414E-01   3.861675074348784E-01
   3.910248967137153E-01   3.959433844282100E-01   4.009237391020755E-01
   4.059667389258606E-01   4.110731718785494E-01   4.162438358506783E-01
   4.214795387690135E-01   4.267810987227889E-01   4.321493440915319E-01
   4.375851136745046E-01   4.430892568217621E-01   4.486626335668700E-01
   4.543061147612847E-01   4.600205822104231E-01   4.658069288114518E-01
   4.716660586927980E-01   4.775988873554271E-01   4.836063418158887E-01
   4.896893607511630E-01   4.958488946453362E-01   5.020859059381094E-01
   5.084013691751870E-01   5.147962711605498E-01   5.212716111106418E-01
   5.278284008105059E-01   5.344676647718710E-01   5.411904403932396E-01
   5.479977781219811E-01   5.548907416184634E-01   5.618704079222585E-01
   5.689378676204248E-01   5.760942250179196E-01   5.833405983101475E-01
   5.906781197576759E-01   5.981079358631616E-01   6.056312075504847E-01
   6.132491103461539E-01   6.209628345629808E-01   6.287735854860658E-01
   6.366825835611338E-01   6.446910645852232E-01   6.528002798997877E-01
   6.610114965862205E-01   6.693259976638322E-01   6.777450822903340E-01
   6.862700659648259E-01   6.949022807333519E-01   7.036430753970334E-01
   7.124938157228173E-01   7.214558846568893E-01   7.305306825407510E-01
   7.397196273300358E-01   7.490241548160635E-01   7.584457188501815E-01
   7.679857915709410E-01   7.776458636341113E-01   7.874274444456071E-01
   7.973320623973327E-01   8.073612651059909E-01   8.175166196549127E-01
   8.277997128389047E-01   8.382121514121993E-01   8.487555623395096E-01
   8.594315930502403E-01   8.702419116959139E-01   8.811882074108093E-01
   8.922721905759040E-01   9.034955930861196E-01   9.148601686209294E-01
   9.263676929183854E-01   9.380199640525679E-01   9.498188027145501E-01
   9.617660524968795E-01   9.738635801816380E-01   9.861132760321425E-01
   9.985170540882883E-01   1.011076852465634E+00   1.023794633658231E+00
   1.036672384845262E+00   1.049712118201553E+00   1.062915871211967E+00
   1.076285706989778E+00   1.089823714599027E+00   1.103532009380944E+00
   1.117412733284483E+00   1.131468055200988E+00   1.145700171303109E+00
   1.160111305387943E+00   1.174703709224506E+00   1.189479662905592E+00
   1.204441475204019E+00   1.219591483933402E+00   1.234932056313430E+00
   1.250465589339744E+00   1.266194510158486E+00   1.282121276445531E+00
   1.298248376790516E+00   1.314578331085684E+00   1.331113690919612E+00
   1.347857039975921E+00   1.364810994436960E+00   1.381978203392609E+00
   1.399361349254198E+00   1.416963148173628E+00   1.434786350467796E+00
   1.452833741048318E+00   1.471108139856691E+00   1.489612402304913E+00
   1.508349419721632E+00   1.527322119803947E+00   1.546533467074839E+00
   1.565986463346407E+00   1.585684148188901E+00   1.605629599405646E+00
   1.625825933513980E+00   1.646276306232191E+00   1.666983912972626E+00
   1.687951989340971E+00   1.709183811641813E+00   1.730682697390588E+00
   1.752452005831929E+00   1.774495138464572E+00   1.796815539572842E+00
   1.819416696764816E+00   1.842302141517295E+00   1.865475449727576E+00
   1.888940242272217E+00   1.912700185572794E+00   1.936758992168782E+00
   1.961120421297667E+00   1.985788279482307E+00   2.010766421125733E+00
   2.036058749113400E+00   2.061669215423006E+00   2.087601821742024E+00
   2.113860620092945E+00   2.140449713466438E+00   2.167373256462443E+00
   2.194635455939321E+00   2.222240571671214E+00   2.250192917013611E+00
   2.278496859577343E+00   2.307156821911027E+00   2.336177282192077E+00
   2.365562774926464E+00   2.395317891657203E+00   2.425447281681826E+00
   2.455955652778827E+00   2.486847771943250E+00   2.518128466131576E+00
   2.549802623015902E+00   2.581875191747688E+00   2.614351183731056E+00
   2.647235673405815E+00   2.680533799040392E+00   2.714250763534651E+00
   2.748391835232900E+00   2.782962348747055E+00   2.817967705790178E+00
   2.853413376020535E+00   2.889304897896206E+00   2.925647879540509E+00
   2.962447999618272E+00   2.999711008223118E+00   3.037442727775963E+00
   3.075649053934743E+00   3.114335956515657E+00   3.153509480425947E+00
   3.193175746608414E+00   3.233340952997860E+00   3.274011375489490E+00
   3.315193368919568E+00   3.356893368058359E+00   3.399117888615555E+00
   3.441873528258413E+00   3.485166967642602E+00   3.529004971456111E+00
   3.573394389476233E+00   3.618342157639832E+00   3.663855299127143E+00
   3.709940925459108E+00   3.756606237608609E+00   3.803858527125618E+00
   3.851705177276493E+00   3.900153664197680E+00   3.949211558063816E+00
   3.998886524270632E+00   4.049186324632670E+00   4.100118818596059E+00
   4.151691964466616E+00   4.203913820653298E+00   4.256792546927386E+00
   4.310336405697449E+00   4.364553763300345E+00   4.419453091308516E+00
   4.475042967853644E+00   4.531332078967044E+00   4.588329219936858E+00
   4.646043296682307E+00   4.704483327145319E+00   4.763658442699536E+00
   4.823577889577162E+00   4.884251030313690E+00   4.945687345210780E+00
   5.007896433817648E+00   5.070888016430936E+00   5.134671935613592E+00
   5.199258157732769E+00   5.264656774517054E+00   5.330878004633395E+00
   5.397932195283707E+00   5.465829823821709E+00   5.534581499390010E+00
   5.604197964577775E+00   5.674690097099345E+00   5.746068911493823E+00
   5.818345560846189E+00   5.891531338529965E+00   5.965637679971787E+00
   6.040676164438302E+00   6.116658516845350E+00   6.193596609590093E+00
   6.271502464406066E+00   6.350388254241563E+00   6.430266305161761E+00
   6.511149098274608E+00   6.593049271681094E+00   6.675979622449957E+00
   6.759953108617202E+00   6.844982851210911E+00   6.931082136301336E+00
   7.018264417076955E+00   7.106543315946523E+00   7.195932626667570E+00
   7.286446316501786E+00   7.378098528397333E+00   7.470903583198798E+00
   7.564875981884825E+00   7.660030407833866E+00   7.756381729118598E+00
   7.853945000828974E+00   7.952735467424702E+00   8.052768565117198E+00
   8.154059924281462E+00   8.256625371898473E+00   8.360480934028065E+00
   8.465642838313128E+00   8.572127516515177E+00   8.679951607081797E+00
   8.789131957746536E+00   8.899685628161285E+00   9.011629892561986E+00
   9.124982242467718E+00   9.239760389413741E+00   9.355982267719064E+00
   9.473666037288597E+00   9.592830086450777E+00   9.713493034830750E+00
   9.835673736259650E+00   9.959391281720693E+00   1.008466500233203E+01
   1.021151447236739E+01   1.033995951231456E+01   1.047002019197232E+01
   1.060171683358652E+01   1.073507001502530E+01   1.087010057299461E+01
   1.100682960629386E+01   1.114527847911263E+01   1.128546882436904E+01
   1.142742254708970E+01   1.157116182783261E+01   1.171670912615285E+01
   1.186408718411187E+01   1.201331902983109E+01   1.216442798109000E+01
   1.231743764896966E+01   1.247237194154203E+01   1.262925506760547E+01
   1.278811154046767E+01   1.294896618177566E+01   1.311184412539443E+01
   1.327677082133407E+01   1.344377203972632E+01   1.361287387485137E+01
   1.378410274921495E+01   1.395748541767706E+01   1.413304897163244E+01
   1.431082084324352E+01   1.449082880972697E+01   1.467310099769374E+01
   1.485766588754406E+01   1.504455231791748E+01   1.523378949019893E+01
   1.542540697308164E+01   1.561943470718710E+01   1.581590300974355E+01
   1.601484257932299E+01   1.621628450063789E+01   1.642026024939832E+01
   1.662680169722997E+01   1.683594111665430E+01   1.704771118613113E+01
   1.726214499516460E+01   1.747927604947370E+01   1.769913827622736E+01
   1.792176602934586E+01   1.814719409486860E+01   1.837545769638938E+01
   1.860659250056040E+01   1.884063462266502E+01   1.907762063226100E+01
   1.931758755889452E+01   1.956057289788602E+01   1.980661461618915E+01
   2.005575115832289E+01   2.030802145237886E+01   2.056346491610380E+01
   2.082212146305853E+01   2.108403150885484E+01   2.134923597747016E+01
   2.161777630764232E+01   2.188969445934429E+01   2.216503292034044E+01
   2.244383471282552E+01   2.272614340014679E+01   2.301200309361104E+01