<UPF version="2.0.1">
  <PP_INFO>
    Generated using "atomic" code by A. Dal Corso  v.7.2
    Author: ADC
    Generation date: 22Sep2023
    Pseudopotential type: PAW
    Element: Zn
    Functional:  SLA  PZ   NOGX NOGC
    Suggested minimum cutoff for wavefunctions:  44. Ry
    Suggested minimum cutoff for charge density: 276. Ry
    The Pseudo was generated with a Scalar-Relativistic Calculation
    Local Potential by smoothing AE potential with Bessel fncs, cutoff radius:   1.9000
    Valence configuration: 
    nl pn  l   occ       Rcut    Rcut US       E pseu
    4S  1  0  2.00      1.200      2.200    -0.520439
    4P  2  1  0.30      1.200      2.200    -0.128612
    3D  3  2  9.70      1.200      1.700    -0.939251
    Generation configuration:
    4S  1  0  2.00      1.200      2.200    -0.520437
    4S  1  0  0.00      1.200      2.200     6.100000
    4P  2  1  0.30      1.200      2.200    -0.128612
    4P  2  1  0.00      1.200      2.200     6.300000
    3D  3  2  9.70      1.200      1.700    -0.939247
    3D  3  2  0.00      1.200      1.700    -0.800000
    Pseudization used: troullier-martins
    <PP_INPUTFILE>
@input
title='Zn',
zed=30.,
rel=1,
config='[Ar] 4s2 4p0.3 3d9.7',
iswitch=3,
dft='LDA'
/
@inputp
lpaw=.true.,
pseudotype=3,
file_pseudopw='Zn.pz-dn-kjpaw_psl.1.0.0.UPF',
author='ADC',
lloc=-1,
rcloc=1.9,
which_augfun='PSQ',
rmatch_augfun_nc=.true.,
nlcc=.true.,
new_core_ps=.true.,
rcore=1.0,
tm=.true.
/
6
4S  1  0  2.00  0.00  1.20  2.20  0.0
4S  1  0  0.00  6.10  1.20  2.20  0.0
4P  2  1  0.30  0.00  1.20  2.20  0.0
4P  2  1  0.00  6.30  1.20  2.20  0.0
3D  3  2  9.70  0.00  1.20  1.70  0.0
3D  3  2  0.00 -0.80  1.20  1.70  0.0
    </PP_INPUTFILE>
  </PP_INFO>
    <!-- END OF HUMAN READABLE SECTION -->
  <PP_HEADER generated="Generated using 'atomic' code by A. Dal Corso  v.7.2" author="ADC" date="22Sep2023" comment="" element="Zn" pseudo_type="PAW" relativistic="scalar" is_ultrasoft="true" is_paw="true" is_coulomb="false" has_so="false" has_wfc="true" has_gipaw="false" paw_as_gipaw="false" core_correction="true" functional=" SLA  PZ   NOGX NOGC" z_valence="12.000000000000000" total_psenergy="-238.02426602772323" wfc_cutoff="44.029679048012369" rho_cutoff="275.63507614469358" l_max="2" l_max_rho="4" l_local="-1" mesh_size="1201" number_of_wfc="3" number_of_proj="6"/>
  <PP_MESH mesh="1201" dx="1.2500000000000001E-002" xmin="-7.0000000000000000" rmax="100.00000000000000" zmesh="30.000000000000000">
    <PP_R>
   3.039606551848388E-05   3.077840095563407E-05   3.116554558055274E-05
   3.155755988537513E-05   3.195450512313399E-05   3.235644331733029E-05
   3.276343727162462E-05   3.317555057965038E-05   3.359284763495035E-05
   3.401539364103849E-05   3.444325462158790E-05   3.487649743074728E-05
   3.531518976358700E-05   3.575940016667656E-05   3.620919804879526E-05
   3.666465369177728E-05   3.712583826149344E-05   3.759282381897108E-05
   3.806568333165359E-05   3.854449068480192E-05   3.902932069303915E-05
   3.952024911204042E-05   4.001735265037003E-05   4.052070898146715E-05
   4.103039675578270E-05   4.154649561306832E-05   4.206908619482049E-05
   4.259825015688081E-05   4.313407018219493E-05   4.367662999373200E-05
   4.422601436756638E-05   4.478230914612423E-05   4.534560125159646E-05
   4.591597869952057E-05   4.649353061253329E-05   4.707834723429606E-05
   4.767051994359582E-05   4.827014126862319E-05   4.887730490143010E-05
   4.949210571256956E-05   5.011463976591908E-05   5.074500433369105E-05
   5.138329791163168E-05   5.202962023441108E-05   5.268407229120723E-05
   5.334675634148547E-05   5.401777593097689E-05   5.469723590785753E-05
   5.538524243913113E-05   5.608190302721804E-05   5.678732652675247E-05
   5.750162316159141E-05   5.822490454203732E-05   5.895728368227735E-05
   5.969887501804233E-05   6.044979442448718E-05   6.121015923429691E-05
   6.198008825602003E-05   6.275970179263258E-05   6.354912166033588E-05
   6.434847120759031E-05   6.515787533438890E-05   6.597746051177323E-05
   6.680735480159464E-05   6.764768787652447E-05   6.849859104031530E-05
   6.936019724831764E-05   7.023264112825446E-05   7.111605900125694E-05
   7.201058890316515E-05   7.291637060609616E-05   7.383354564028390E-05
   7.476225731619345E-05   7.570265074691356E-05   7.665487287083120E-05
   7.761907247459046E-05   7.859540021634109E-05   7.958400864927912E-05
   8.058505224548345E-05   8.159868742005277E-05   8.262507255554529E-05
   8.366436802672662E-05   8.471673622562860E-05   8.578234158692334E-05
   8.686135061361661E-05   8.795393190306405E-05   8.906025617331501E-05
   9.018049628978755E-05   9.131482729227894E-05   9.246342642231629E-05
   9.362647315085042E-05   9.480414920629892E-05   9.599663860294144E-05
   9.720412766967225E-05   9.842680507911489E-05   9.966486187710201E-05
   1.009184915125272E-04   1.021878898675714E-04   1.034732552883103E-04
   1.047747886157060E-04   1.060926932169889E-04   1.074271750174342E-04
   1.087784425325383E-04   1.101467069005994E-04   1.115321819157091E-04
   1.129350840611571E-04   1.143556325432578E-04   1.157940493256018E-04
   1.172505591637376E-04   1.187253896402910E-04   1.202187712005243E-04
   1.217309371883448E-04   1.232621238827644E-04   1.248125705348193E-04
   1.263825194049536E-04   1.279722158008721E-04   1.295819081158710E-04
   1.312118478676494E-04   1.328622897376097E-04   1.345334916106519E-04
   1.362257146154689E-04   1.379392231653479E-04   1.396742849994860E-04
   1.414311712248247E-04   1.432101563584113E-04   1.450115183702923E-04
   1.468355387269469E-04   1.486825024352667E-04   1.505526980870889E-04
   1.524464179042891E-04   1.543639577844415E-04   1.563056173470537E-04
   1.582716999803826E-04   1.602625128888395E-04   1.622783671409921E-04
   1.643195777181684E-04   1.663864635636739E-04   1.684793476326271E-04
   1.705985569424217E-04   1.727444226238242E-04   1.749172799727128E-04
   1.771174685024692E-04   1.793453319970274E-04   1.816012185645908E-04
   1.838854806920257E-04   1.861984752999367E-04   1.885405637984369E-04
   1.909121121436195E-04   1.933134908947381E-04   1.957450752721084E-04
   1.982072452157365E-04   2.007003854446853E-04   2.032248855171879E-04
   2.057811398915167E-04   2.083695479876187E-04   2.109905142495249E-04
   2.136444482085461E-04   2.163317645472629E-04   2.190528831643204E-04
   2.218082292400391E-04   2.245982333028489E-04   2.274233312965609E-04
   2.302839646484844E-04   2.331805803384004E-04   2.361136309684042E-04
   2.390835748336233E-04   2.420908759938297E-04   2.451360043459479E-04
   2.482194356974779E-04   2.513416518408425E-04   2.545031406286654E-04
   2.577043960500023E-04   2.609459183075258E-04   2.642282138956832E-04
   2.675517956798387E-04   2.709171829764071E-04   2.743249016340010E-04
   2.777754841155937E-04   2.812694695817177E-04   2.848074039747116E-04
   2.883898401040211E-04   2.920173377325809E-04   2.956904636642753E-04
   2.994097918325039E-04   3.031759033898608E-04   3.069893867989380E-04
   3.108508379242775E-04   3.147608601254737E-04   3.187200643514502E-04
   3.227290692359231E-04   3.267885011940609E-04   3.308989945203670E-04
   3.350611914877862E-04   3.392757424480623E-04   3.435433059333583E-04
   3.478645487591501E-04   3.522401461284218E-04   3.566707817371643E-04
   3.611571478812050E-04   3.656999455643829E-04   3.702998846080769E-04
   3.749576837621222E-04   3.796740708171126E-04   3.844497827181207E-04
   3.892855656798484E-04   3.941821753032206E-04   3.991403766934541E-04
   4.041609445796033E-04   4.092446634356145E-04   4.143923276029031E-04
   4.196047414144666E-04   4.248827193205689E-04   4.302270860159957E-04
   4.356386765689160E-04   4.411183365513647E-04   4.466669221713609E-04
   4.522853004066978E-04   4.579743491404048E-04   4.637349572979207E-04
   4.695680249859912E-04   4.754744636333085E-04   4.814551961329293E-04
   4.875111569864740E-04   4.936432924501467E-04   4.998525606825906E-04
   5.061399318945982E-04   5.125063885007144E-04   5.189529252727363E-04
   5.254805494951495E-04   5.320902811225207E-04   5.387831529388625E-04
   5.455602107190142E-04   5.524225133920418E-04   5.593711332066986E-04
   5.664071558989694E-04   5.735316808617128E-04   5.807458213164505E-04
   5.880507044873054E-04   5.954474717771344E-04   6.029372789458770E-04
   6.105212962911392E-04   6.182007088310628E-04   6.259767164894804E-04
   6.338505342834086E-04   6.418233925128976E-04   6.498965369532665E-04
   6.580712290497594E-04   6.663487461146477E-04   6.747303815268131E-04
   6.832174449338419E-04   6.918112624566580E-04   7.005131768967344E-04
   7.093245479459059E-04   7.182467523988257E-04   7.272811843680924E-04
   7.364292555020814E-04   7.456923952055201E-04   7.550720508628324E-04
   7.645696880642977E-04   7.741867908350526E-04   7.839248618669702E-04
   7.937854227534626E-04   8.037700142272292E-04   8.138801964010012E-04
   8.241175490113133E-04   8.344836716653383E-04   8.449801840908315E-04
   8.556087263892145E-04   8.663709592918449E-04   8.772685644195104E-04
   8.883032445451828E-04   8.994767238600828E-04   9.107907482430856E-04
   9.222470855335192E-04   9.338475258073941E-04   9.455938816571033E-04
   9.574879884746478E-04   9.695317047384159E-04   9.817269123035763E-04
   9.940755166961237E-04   1.006579447410617E-03   1.019240658211670E-03
   1.032061127439230E-03   1.045042858317696E-03   1.058187879268932E-03
   1.071498244229202E-03   1.084976032970114E-03   1.098623351423579E-03
   1.112442332010869E-03   1.126435133975819E-03   1.140603943722201E-03
   1.154950975155368E-03   1.169478470028168E-03   1.184188698291232E-03
   1.199083958447656E-03   1.214166577912141E-03   1.229438913374667E-03
   1.244903351168721E-03   1.260562307644169E-03   1.276418229544822E-03
   1.292473594390734E-03   1.308730910865327E-03   1.325192719207377E-03
   1.341861591607928E-03   1.358740132612207E-03   1.375830979526585E-03
   1.393136802830664E-03   1.410660306594544E-03   1.428404228901340E-03
   1.446371342275012E-03   1.464564454113581E-03   1.482986407127784E-03
   1.501640079785261E-03   1.520528386760314E-03   1.539654279389337E-03
   1.559020746131966E-03   1.578630813038031E-03   1.598487544220383E-03
   1.618594042333666E-03   1.638953449059119E-03   1.659568945595465E-03
   1.680443753155979E-03   1.701581133471814E-03   1.722984389301647E-03
   1.744656864947746E-03   1.766601946778527E-03   1.788823063757671E-03
   1.811323687979916E-03   1.834107335213575E-03   1.857177565449880E-03
   1.880537983459245E-03   1.904192239354510E-03   1.928144029161283E-03
   1.952397095395452E-03   1.976955227647957E-03   2.001822263176932E-03
   2.027002087507266E-03   2.052498635037741E-03   2.078315889655782E-03
   2.104457885359946E-03   2.130928706890252E-03   2.157732490366418E-03
   2.184873423934146E-03   2.212355748419521E-03   2.240183757991658E-03
   2.268361800833673E-03   2.296894279822086E-03   2.325785653214789E-03
   2.355040435347654E-03   2.384663197339907E-03   2.414658567808382E-03
   2.445031233590738E-03   2.475785940477797E-03   2.506927493955081E-03
   2.538460759953677E-03   2.570390665610557E-03   2.602722200038439E-03
   2.635460415105356E-03   2.668610426224019E-03   2.702177413151108E-03
   2.736166620796627E-03   2.770583360043419E-03   2.805433008577013E-03
   2.840721011725896E-03   2.876452883312350E-03   2.912634206514013E-03
   2.949270634736244E-03   2.986367892495490E-03   3.023931776313752E-03
   3.061968155624296E-03   3.100482973688783E-03   3.139482248525889E-03
   3.178972073851655E-03   3.218958620031629E-03   3.259448135045002E-03
   3.300446945460877E-03   3.341961457426791E-03   3.383998157669703E-03
   3.426563614509548E-03   3.469664478885555E-03   3.513307485395478E-03
   3.557499453347874E-03   3.602247287827644E-03   3.647557980774966E-03
   3.693438612077799E-03   3.739896350678124E-03   3.786938455692126E-03
   3.834572277544414E-03   3.882805259116567E-03   3.931644936910086E-03
   3.981098942223987E-03   4.031175002347223E-03   4.081880941766065E-03
   4.133224683386710E-03   4.185214249773244E-03   4.237857764401187E-03
   4.291163452926808E-03   4.345139644472390E-03   4.399794772927676E-03
   4.455137378267683E-03   4.511176107887090E-03   4.567919717951415E-03
   4.625377074765177E-03   4.683557156157273E-03   4.742469052883789E-03
   4.802121970048442E-03   4.862525228540914E-03   4.923688266493228E-03
   4.985620640754504E-03   5.048332028384223E-03   5.111832228164282E-03
   5.176131162130101E-03   5.241238877120922E-03   5.307165546349678E-03
   5.373921470992563E-03   5.441517081798614E-03   5.509962940719552E-03
   5.579269742560085E-03   5.649448316649006E-03   5.720509628531295E-03
   5.792464781681505E-03   5.865325019238717E-03   5.939101725763283E-03
   6.013806429015695E-03   6.089450801757826E-03   6.166046663576810E-03
   6.243605982731901E-03   6.322140878024510E-03   6.401663620691807E-03
   6.482186636324122E-03   6.563722506806468E-03   6.646283972284506E-03
   6.729883933155182E-03   6.814535452082470E-03   6.900251756038426E-03
   6.987046238369927E-03   7.074932460891437E-03   7.163924156004022E-03
   7.254035228841100E-03   7.345279759441133E-03   7.437672004947661E-03
   7.531226401837029E-03   7.625957568174083E-03   7.721880305896297E-03
   7.819009603126594E-03   7.917360636515271E-03   8.016948773611405E-03
   8.117789575264026E-03   8.219898798053554E-03   8.323292396753791E-03
   8.427986526824882E-03   8.533997546937670E-03   8.641342021529720E-03
   8.750036723393580E-03   8.860098636297558E-03   8.971544957639462E-03
   9.084393101133756E-03   9.198660699532440E-03   9.314365607380248E-03
   9.431525903804435E-03   9.550159895339669E-03   9.670286118788512E-03
   9.791923344117765E-03   9.915090577391357E-03   1.003980706374008E-02
   1.016609229036864E-02   1.029396598960066E-02   1.042344814196180E-02
   1.055455897930178E-02   1.068731898795570E-02   1.082174891194499E-02
   1.095786975621881E-02   1.109570278993599E-02   1.123526954978848E-02
   1.137659184336646E-02   1.151969175256582E-02   1.166459163703851E-02
   1.181131413768629E-02   1.195988218019839E-02   1.211031897863372E-02
   1.226264803904808E-02   1.241689316316710E-02   1.257307845210523E-02
   1.273122831013164E-02   1.289136744848338E-02   1.305352088922663E-02
   1.321771396916643E-02   1.338397234380556E-02   1.355232199135331E-02
   1.372278921678463E-02   1.389540065595028E-02   1.407018327973885E-02
   1.424716439829089E-02   1.442637166526625E-02   1.460783308216499E-02
   1.479157700270266E-02   1.497763213724072E-02   1.516602755727246E-02
   1.535679269996554E-02   1.554995737276162E-02   1.574555175803382E-02
   1.594360641780281E-02   1.614415229851209E-02   1.634722073586355E-02
   1.655284345971366E-02   1.676105259903136E-02   1.697188068691831E-02
   1.718536066569214E-02   1.740152589203388E-02   1.762041014219992E-02
   1.784204761729968E-02   1.806647294863957E-02   1.829372120313422E-02
   1.852382788878572E-02   1.875682896023187E-02   1.899276082436410E-02
   1.923166034601622E-02   1.947356485372453E-02   1.971851214556052E-02
   1.996654049503686E-02   2.021768865708778E-02   2.047199587412460E-02
   2.072950188216734E-02   2.099024691705368E-02   2.125427172072579E-02
   2.152161754759640E-02   2.179232617099491E-02   2.206643988969447E-02
   2.234400153452132E-02   2.262505447504716E-02   2.290964262636574E-02
   2.319781045595474E-02   2.348960299062379E-02   2.378506582355010E-02
   2.408424512140242E-02   2.438718763155473E-02   2.469394068939060E-02
   2.500455222569940E-02   2.531907077416563E-02   2.563754547895237E-02
   2.596002610238016E-02   2.628656303270256E-02   2.661720729197924E-02
   2.695201054404843E-02   2.729102510259942E-02   2.763430393934668E-02
   2.798190069230692E-02   2.833386967417995E-02   2.869026588083528E-02
   2.905114499990528E-02   2.941656341948651E-02   2.978657823695053E-02
   3.016124726786533E-02   3.054062905502927E-02   3.092478287761845E-02
   3.131376876044920E-02   3.170764748335714E-02   3.210648059069407E-02
   3.251033040094444E-02   3.291926001646274E-02   3.333333333333333E-02
   3.375261505135449E-02   3.417717068414764E-02   3.460706656939418E-02
   3.504236987920083E-02   3.548314863059531E-02   3.592947169615439E-02
   3.638140881476506E-02   3.683903060252160E-02   3.730240856375937E-02
   3.777161510222755E-02   3.824672353240242E-02   3.872780809094278E-02
   3.921494394828971E-02   3.970820722041197E-02   4.020767498069935E-02
   4.071342527200567E-02   4.122553711884284E-02   4.174409053972884E-02
   4.226916655969068E-02   4.280084722292472E-02   4.333921560561638E-02
   4.388435582892073E-02   4.443635307210678E-02   4.499529358586681E-02
   4.556126470579321E-02   4.613435486602505E-02   4.671465361306579E-02
   4.730225161977527E-02   4.789724069953751E-02   4.849971382060671E-02
   4.910976512063386E-02   4.972748992137569E-02   5.035298474358911E-02
   5.098634732211266E-02   5.162767662113777E-02   5.227707284967231E-02
   5.293463747719813E-02   5.360047324952612E-02   5.427468420485037E-02
   5.495737569000427E-02   5.564865437692144E-02   5.634862827930306E-02
   5.705740676949551E-02   5.777510059557988E-02   5.850182189867661E-02
   5.923768423046796E-02   5.998280257094031E-02   6.073729334635034E-02
   6.150127444741670E-02   6.227486524774074E-02   6.305818662245900E-02
   6.385136096712989E-02   6.465451221685850E-02   6.546776586566162E-02
   6.629124898607640E-02   6.712509024901590E-02   6.796941994387386E-02
   6.882436999888292E-02   6.969007400172857E-02   7.056666722042250E-02
   7.145428662443866E-02   7.235307090611477E-02   7.326316050232344E-02
   7.418469761641563E-02   7.511782624044029E-02   7.606269217764347E-02
   7.701944306525016E-02   7.798822839753307E-02   7.896919954917139E-02
   7.996250979890326E-02   8.096831435347629E-02   8.198677037189836E-02
   8.301803698999441E-02   8.406227534527165E-02   8.511964860209756E-02
   8.619032197719489E-02   8.727446276545672E-02   8.837224036608693E-02
   8.948382630906908E-02   9.060939428196817E-02   9.174912015707024E-02
   9.290318201886172E-02   9.407176019185665E-02   9.525503726877219E-02
   9.645319813905870E-02   9.766643001779016E-02   9.889492247491562E-02
   1.001388674648811E-01   1.013984593566222E-01   1.026738949639344E-01
   1.039653735762265E-01   1.052730969896590E-01   1.065972695386758E-01
   1.079380981279321E-01   1.092957922646225E-01   1.106705640912184E-01
   1.120626284186143E-01   1.134722027596939E-01   1.148995073633159E-01
   1.163447652487280E-01   1.178082022404158E-01   1.192900470033860E-01
   1.207905310788980E-01   1.223098889206416E-01   1.238483579313701E-01
   1.254061784999972E-01   1.269835940391554E-01   1.285808510232324E-01
   1.301981990268818E-01   1.318358907640192E-01   1.334941821273110E-01
   1.351733322281559E-01   1.368736034371737E-01   1.385952614252003E-01
   1.403385752047987E-01   1.421038171722941E-01   1.438912631503348E-01
   1.457011924309919E-01   1.475338878193979E-01   1.493896356779355E-01
   1.512687259709836E-01   1.531714523102230E-01   1.550981120005156E-01
   1.570490060863582E-01   1.590244393989201E-01   1.610247206036761E-01
   1.630501622486335E-01   1.651010808131704E-01   1.671777967574854E-01
   1.692806345726694E-01   1.714099228314097E-01   1.735659942393283E-01
   1.757491856869697E-01   1.779598383024393E-01   1.801982975047056E-01
   1.824649130575735E-01   1.847600391243341E-01   1.870840343231052E-01
   1.894372617828649E-01   1.918200892001910E-01   1.942328888967160E-01
   1.966760378773006E-01   1.991499178889441E-01   2.016549154804317E-01
   2.041914220627329E-01   2.067598339701624E-01   2.093605525223055E-01
   2.119939840867276E-01   2.146605401424688E-01   2.173606373443371E-01
   2.200946975880145E-01   2.228631480759757E-01   2.256664213842424E-01
   2.285049555299728E-01   2.313791940399012E-01   2.342895860196434E-01
   2.372365862238666E-01   2.402206551273488E-01   2.432422589969279E-01
   2.463018699643550E-01   2.493999661000695E-01   2.525370314878950E-01
   2.557135563006809E-01   2.589300368768926E-01   2.621869757981631E-01
   2.654848819678260E-01   2.688242706904292E-01   2.722056637522549E-01
   2.756295895028492E-01   2.790965829375755E-01   2.826071857812127E-01
   2.861619465725965E-01   2.897614207503334E-01   2.934061707395871E-01
   2.970967660399579E-01   3.008337833144710E-01   3.046178064796776E-01
   3.084494267968963E-01   3.123292429645979E-01   3.162578612119509E-01
   3.202358953935504E-01   3.242639670853296E-01   3.283427056816860E-01
   3.324727484938242E-01   3.366547408493351E-01   3.408893361930337E-01
   3.451771961890565E-01   3.495189908242524E-01   3.539153985128670E-01
   3.583671062025451E-01   3.628748094816716E-01   3.674392126880535E-01
   3.720610290189788E-01   3.767409806426530E-01   3.814797988110374E-01
   3.862782239741134E-01   3.911370058955738E-01   3.960569037699798E-01
   4.010386863413846E-01   4.060831320234491E-01   4.111910290210756E-01
   4.163631754535604E-01   4.216003794793074E-01   4.269034594221014E-01
   4.322732438989711E-01   4.377105719496676E-01   4.432162931677596E-01
   4.487912678333903E-01   4.544363670476921E-01   4.601524728689032E-01
   4.659404784501883E-01   4.718012881791936E-01   4.777358178193650E-01
   4.837449946530308E-01   4.898297576262980E-01   4.959910574957617E-01
   5.022298569770597E-01   5.085471308953060E-01   5.149438663374009E-01
   5.214210628062724E-01   5.279797323770478E-01   5.346208998551892E-01
   5.413456029366286E-01   5.481548923699021E-01   5.550498321203381E-01
   5.620314995363016E-01   5.691009855175287E-01   5.762593946855888E-01
   5.835078455564763E-01   5.908474707153881E-01   5.982794169936886E-01
   6.058048456481022E-01   6.134249325421691E-01   6.211408683299672E-01
   6.289538586421628E-01   6.368651242743889E-01   6.448759013779939E-01
   6.529874416532007E-01   6.612010125446778E-01   6.695178974395889E-01
   6.779393958681209E-01   6.864668237065346E-01   6.951015133827811E-01
   7.038448140846876E-01   7.126980919707780E-01   7.216627303837359E-01
   7.307401300665490E-01   7.399317093813889E-01   7.492389045312209E-01
   7.586631697842243E-01   7.682059777010201E-01   7.778688193647574E-01
   7.876532046141083E-01   7.975606622791717E-01   8.075927404203660E-01
   8.177510065703124E-01   8.280370479787617E-01   8.384524718606132E-01
   8.489989056470365E-01   8.596779972397688E-01   8.704914152685997E-01
   8.814408493520934E-01   8.925280103616052E-01   9.037546306885970E-01
   9.151224645153366E-01   9.266332880889897E-01   9.382888999991551E-01
   9.500911214589106E-01   9.620417965893678E-01   9.741427927078313E-01
   9.863960006195660E-01   9.988033349132341E-01   1.011366734260065E+00
   1.024088161716765E+00   1.036969605032255E+00   1.050013076958266E+00
   1.063220615563817E+00   1.076594284553691E+00   1.090136173590872E+00
   1.103848398623077E+00   1.117733102213365E+00   1.131792453874918E+00
   1.146028650410041E+00   1.160443916253402E+00   1.175040503819618E+00
   1.189820693855197E+00   1.204786795794898E+00   1.219941148122601E+00
   1.235286118736686E+00   1.250824105320034E+00   1.266557535714660E+00
   1.282488868301071E+00   1.298620592382401E+00   1.314955228573352E+00
   1.331495329194065E+00   1.348243478668915E+00   1.365202293930327E+00
   1.382374424827694E+00   1.399762554541400E+00   1.417369400002093E+00
   1.435197712315199E+00   1.453250277190784E+00   1.471529915378843E+00
   1.490039483110029E+00   1.508781872541959E+00   1.527760012211117E+00
   1.546976867490433E+00   1.566435441052645E+00   1.586138773339457E+00
   1.606089943036627E+00   1.626292067555015E+00   1.646748303517673E+00
   1.667461847253094E+00   1.688435935294622E+00   1.709673844886190E+00
   1.731178894494383E+00   1.752954444326948E+00   1.775003896857857E+00
   1.797330697358919E+00   1.819938334438141E+00   1.842830340584816E+00
   1.866010292721472E+00   1.889481812762796E+00   1.913248568181541E+00
   1.937314272581599E+00   1.961682686278249E+00   1.986357616885700E+00
   2.011342919912069E+00   2.036642499361779E+00   2.062260308345596E+00
   2.088200349698297E+00   2.114466676604112E+00   2.141063393230065E+00
   2.167994655367234E+00   2.195264671080123E+00   2.222877701364174E+00
   2.250838060811538E+00   2.279150118285274E+00   2.307818297601955E+00
   2.336847078222929E+00   2.366240995954231E+00   2.396004643655302E+00
   2.426142671956658E+00   2.456659789986528E+00   2.487560766106697E+00
   2.518850428657556E+00   2.550533666712530E+00   2.582615430842032E+00
   2.615100733886972E+00   2.647994651742045E+00   2.681302324148844E+00
   2.715028955498938E+00   2.749179815647104E+00   2.783760240734709E+00
   2.818775634023533E+00   2.854231466740022E+00   2.890133278930163E+00
   2.926486680325164E+00   2.963297351217944E+00   3.000571043350727E+00
   3.038313580813748E+00   3.076530860955263E+00   3.115228855303058E+00
   3.154413610497472E+00   3.194091249236229E+00   3.234267971231115E+00
   3.274950054176669E+00   3.316143854731131E+00   3.357855809509637E+00
   3.400092436089990E+00   3.442860334031029E+00   3.486166185903807E+00
   3.530016758335801E+00   3.574418903068152E+00   3.619379558026320E+00
   3.664905748404121E+00   3.711004587761412E+00   3.757683279135644E+00
   3.804949116167301E+00   3.852809484239589E+00   3.901271861632397E+00
   3.950343820690778E+00   4.000033029008185E+00   4.050347250624499E+00
   4.101294347239218E+00   4.152882279439848E+00   4.205119107945739E+00
   4.258012994867634E+00   4.311572204982966E+00   4.365805107027287E+00
   4.420720175001889E+00   4.476325989497851E+00   4.532631239036837E+00
   4.589644721428624E+00   4.647375345145838E+00   4.705832130715900E+00
   4.765024212130467E+00   4.824960838272704E+00   4.885651374362372E+00
   4.947105303419220E+00   5.009332227744699E+00   5.072341870422321E+00
   5.136144076836964E+00   5.200748816213170E+00   5.266166183172915E+00
   5.332406399312889E+00   5.399479814801611E+00   5.467396909996733E+00
   5.536168297082537E+00   5.605804721728181E+00   5.676317064766705E+00
   5.747716343895145E+00   5.820013715396148E+00   5.893220475881082E+00
   5.967348064055222E+00   6.042408062505046E+00   6.118412199508000E+00
   6.195372350865144E+00   6.273300541756683E+00   6.352208948621000E+00
   6.432109901057220E+00   6.513015883751698E+00   6.594939538428858E+00
   6.677893665826394E+00   6.761891227695497E+00   6.846945348826112E+00
   6.933069319097688E+00   7.020276595555825E+00   7.108580804514869E+00
   7.197995743687136E+00   7.288535384338806E+00   7.380213873472906E+00
   7.473045536039909E+00   7.567044877175936E+00   7.662226584469295E+00
   7.758605530255410E+00   7.856196773940621E+00   7.955015564355329E+00
   8.055077342136560E+00   8.156397742140680E+00   8.258992595886344E+00
   8.362877934028154E+00   8.468069988861576E+00   8.574585196859166E+00
   8.682440201238894E+00   8.791651854564641E+00   8.902237221379405E+00
   9.014213580871766E+00   9.127598429575686E+00   9.242409484104465E+00
   9.358664683918985E+00   9.476382194130698E+00   9.595580408340112E+00
   9.716277951510673E+00   9.838493682879077E+00   9.962246698902019E+00
   1.008755633624000E+01   1.021444217477882E+01   1.034292404068888E+01
   1.047302200952314E+01   1.060475640935394E+01   1.073814782394922E+01
   1.087321709598894E+01   1.100998533032163E+01   1.114847389726217E+01
   1.128870443593092E+01   1.143069885763481E+01   1.157447934929117E+01
   1.172006837689429E+01   1.186748868902597E+01   1.201676332040992E+01
   1.216791559551096E+01   1.232096913217964E+01   1.247594784534241E+01
   1.263287595073852E+01   1.279177796870374E+01   1.295267872800163E+01
   1.311560336970322E+01   1.328057735111520E+01   1.344762644975784E+01
   1.361677676739268E+01   1.378805473410096E+01   1.396148711241348E+01
   1.413710100149215E+01   1.431492384136446E+01   1.449498341721096E+01
   1.467730786370663E+01   1.486192566941725E+01   1.504886568125052E+01
   1.523815710896363E+01   1.542982952972732E+01   1.562391289274723E+01
   1.582043752394376E+01   1.601943413069031E+01   1.622093380661157E+01
   1.642496803644189E+01   1.663156870094473E+01   1.684076808189432E+01
   1.705259886711947E+01   1.726709415561140E+01   1.748428746269535E+01
   1.770421272526737E+01   1.792690430709725E+01   1.815239700419765E+01
   1.838072605026129E+01   1.861192712216620E+01   1.884603634555017E+01
   1.908309030045573E+01   1.932312602704555E+01   1.956618103139029E+01
   1.981229329132894E+01   2.006150126240274E+01   2.031384388386427E+01
   2.056936058476145E+01   2.082809129009870E+01   2.109007642707514E+01
   2.135535693140136E+01   2.162397425369597E+01   2.189597036596199E+01
   2.217138776814539E+01   2.245026949477565E+01   2.273265912168985E+01
   2.301860077284181E+01   2.330813912719619E+01   2.360131942570998E+01
   2.389818747840133E+01   2.419878967150738E+01   2.450317297473246E+01
   2.481138494858690E+01   2.512347375181871E+01   2.543948814893839E+01
   2.575947751783833E+01   2.608349185750855E+01   2.641158179584874E+01
   2.674379859757930E+01   2.708019417225147E+01   2.742082108235808E+01
   2.776573255154696E+01   2.811498247293678E+01   2.846862541753838E+01
   2.882671664278139E+01   2.918931210114820E+01   2.955646844891697E+01
   2.992824305501394E+01   3.030469400997774E+01   3.068588013503603E+01
   3.107186099129628E+01   3.146269688905266E+01   3.185844889720925E+01
   3.225917885282255E+01   3.266494937076347E+01   3.307582385350087E+01
   3.349186650100873E+01   3.391314232079704E+01   3.433971713806979E+01
   3.477165760601013E+01   3.520903121619484E+01   3.565190630914047E+01
   3.610035208498120E+01   3.655443861428195E+01   3.701423684898683E+01
   3.747981863350535E+01   3.795125671593870E+01   3.842862475944629E+01
   3.891199735375618E+01   3.940145002681973E+01   3.989705925661278E+01
   4.039890248308595E+01   4.090705812026422E+01   4.142160556849986E+01