
     Program BANDS v.7.1 starts on 22Sep2023 at 12:18:35 

     This program is part of the open-source Quantum ESPRESSO suite
     for quantum simulation of materials; please cite
         "P. Giannozzi et al., J. Phys.:Condens. Matter 21 395502 (2009);
         "P. Giannozzi et al., J. Phys.:Condens. Matter 29 465901 (2017);
         "P. Giannozzi et al., J. Chem. Phys. 152 154105 (2020);
          URL http://www.quantum-espresso.org", 
     in publications or presentations arising from this work. More details at
     http://www.quantum-espresso.org/quote

     Parallel version (MPI & OpenMP), running on      10 processor cores
     Number of MPI processes:                10
     Threads/MPI process:                     1

     MPI processes distributed on     1 nodes
     R & G space division:  proc/nbgrp/npool/nimage =      10
     11747 MiB available memory on the printing compute node when the environment starts


     Reading xml data from directory:

     ./work/pwscf.save/
     file V.pbe-spn-kjpaw_psl.1.0.0.UPF: wavefunction(s)  3P 3D renormalized
     file Sr.pbe-spn-kjpaw_psl.1.0.0.UPF: wavefunction(s)  4P renormalized
     file O.pbe-n-kjpaw_psl.1.0.0.UPF: wavefunction(s)  2S 2P renormalized

     IMPORTANT: XC functional enforced from input :
     Exchange-correlation= PBE
                           (   1   4   3   4   0   0   0)
     Any further DFT definition will be discarded
     Please, verify this is what you really want


     Parallelization info
     --------------------
     sticks:   dense  smooth     PW     G-vecs:    dense   smooth      PW
     Min         270      84     25                10494     1826     307
     Max         271      85     27                10497     1829     308
     Sum        2701     845    253               104943    18277    3071

     Using Slab Decomposition


     Check: negative core charge=   -0.000001

     negative rho (up, down):  4.579E-05 0.000E+00
     Reading collected, re-writing distributed wavefunctions
     high-symmetry point:  0.5000 0.5000 0.5000   x coordinate   0.0000
     high-symmetry point:  0.0000 0.0000 0.0000   x coordinate   0.8660
     high-symmetry point:  0.0000 0.5000 0.0000   x coordinate   1.3660
     high-symmetry point:  0.5000 0.5000 0.0000   x coordinate   1.8660
     high-symmetry point:  0.0000 0.0000 0.0000   x coordinate   2.5731

     Plottable bands (eV) written to file bands.out.gnu
     Bands written to file bands.out

 **************************************************************************

                    xk=(   0.50000,   0.50000,   0.50000  )

     point group O_h (m-3m) 
     there are 10 classes
     the character table:

       E     8C3   3C2   6C4   6C2'  i     8S6   3s_h  6S4   6s_d 
A_1g   1.00  1.00  1.00  1.00  1.00  1.00  1.00  1.00  1.00  1.00
A_2g   1.00  1.00  1.00 -1.00 -1.00  1.00  1.00  1.00 -1.00 -1.00
E_g    2.00 -1.00  2.00  0.00  0.00  2.00 -1.00  2.00  0.00  0.00
T_1g   3.00  0.00 -1.00  1.00 -1.00  3.00  0.00 -1.00  1.00 -1.00
T_2g   3.00  0.00 -1.00 -1.00  1.00  3.00  0.00 -1.00 -1.00  1.00
A_1u   1.00  1.00  1.00  1.00  1.00 -1.00 -1.00 -1.00 -1.00 -1.00
A_2u   1.00  1.00  1.00 -1.00 -1.00 -1.00 -1.00 -1.00  1.00  1.00
E_u    2.00 -1.00  2.00  0.00  0.00 -2.00  1.00 -2.00  0.00  0.00
T_1u   3.00  0.00 -1.00  1.00 -1.00 -3.00  0.00  1.00 -1.00  1.00
T_2u   3.00  0.00 -1.00 -1.00  1.00 -3.00  0.00  1.00  1.00 -1.00

     the symmetry operations in each class and the name of the first element:

     E        1
                                                                 
     8C3     17   19   20   18   24   21   22   23
                                                                 
     3C2      2    4    3
                                                                 
     6C4      7    8   15   16   12   11
                                                                 
     6C2'     5    6   14   13   10    9
                                                                 
     i       25
                                                                 
     8S6     41   43   44   42   48   45   46   47
                                                                 
     3s_h    26   28   27
                                                                 
     6S4     31   32   39   40   36   35
                                                                 
     6s_d    29   30   38   37   34   33
                                                                 

     Band symmetry, O_h (m-3m)  point group:

     e(  1 -  1) =    -53.11942  eV     1   --> A_1g G_1   G_1+
     e(  2 -  4) =    -26.98860  eV     3   --> T_1u G_15  G_4-
     e(  5 -  5) =    -21.80045  eV     1   --> A_2u G_2'  G_2-
     e(  6 -  8) =     -5.89817  eV     3   --> T_1u G_15  G_4-
     e(  9 - 11) =     -4.21094  eV     3   --> T_2g G_25' G_5+
     e( 12 - 12) =      5.31949  eV     1   --> A_1g G_1   G_1+
     e( 13 - 14) =      6.05521  eV     2   --> E_g  G_12  G_3+
     e( 15 - 17) =      6.63795  eV     3   --> T_2g G_25' G_5+
     e( 18 - 20) =     10.44461  eV     3   --> T_1g G_15' G_4+
     e( 21 - 23) =     14.21851  eV     3   --> T_2g G_25' G_5+
     e( 24 - 24) =     17.84229  eV     1   -->   ?
     e( 25 - 25) =     18.13776  eV     1   -->   ?
     e( 26 - 26) =     18.13795  eV     1   -->   ?

 **************************************************************************

 **************************************************************************

                    xk=(   0.47500,   0.47500,   0.47500  )

     point group C_3v (3m)  
     there are  3 classes
     the character table:

       E     2C3   3s_v 
A_1    1.00  1.00  1.00
A_2    1.00  1.00 -1.00
E      2.00 -1.00  0.00

     the symmetry operations in each class and the name of the first element:

     E        1
                                                                 
     2C3      2    3
                                                                 
     3s_v     4    5    6
                                                                 

     Band symmetry, C_3v (3m)   point group:

     e(  1 -  1) =    -53.11945  eV     1   --> A_1  L_1       
     e(  2 -  4) =    -26.98844  eV     3   --> A_1  L_1       
     e(  2 -  4) =    -26.98844  eV     3   --> E    L_3       
     e(  5 -  5) =    -21.80090  eV     1   --> A_1  L_1       
     e(  6 -  6) =     -5.92313  eV     1   --> A_1  L_1       
     e(  7 -  8) =     -5.90295  eV     2   --> E    L_3       
     e(  9 - 10) =     -4.20359  eV     2   --> E    L_3       
     e( 11 - 11) =     -4.18756  eV     1   --> A_1  L_1       
     e( 12 - 12) =      5.33771  eV     1   --> A_1  L_1       
     e( 13 - 14) =      6.06524  eV     2   --> E    L_3       
     e( 15 - 15) =      6.62722  eV     1   --> A_1  L_1       
     e( 16 - 17) =      6.64339  eV     2   --> E    L_3       
     e( 18 - 19) =     10.42413  eV     2   --> E    L_3       
     e( 20 - 20) =     10.43617  eV     1   --> A_2  L_2       
     e( 21 - 21) =     14.20576  eV     1   --> A_1  L_1       
     e( 22 - 23) =     14.20732  eV     2   --> E    L_3       
     e( 24 - 25) =     17.85802  eV     2   --> E    L_3       
     e( 26 - 26) =     17.87264  eV     1   --> A_1  L_1       

 **************************************************************************

 **************************************************************************

                    xk=(   0.45000,   0.45000,   0.45000  )

     Band symmetry, C_3v (3m)   point group:

     e(  1 -  1) =    -53.11949  eV     1   --> A_1  L_1       
     e(  2 -  4) =    -26.98789  eV     3   --> A_1  L_1       
     e(  2 -  4) =    -26.98789  eV     3   --> E    L_3       
     e(  5 -  5) =    -21.80219  eV     1   --> A_1  L_1       
     e(  6 -  6) =     -5.99298  eV     1   --> A_1  L_1       
     e(  7 -  8) =     -5.91668  eV     2   --> E    L_3       
     e(  9 - 10) =     -4.18225  eV     2   --> E    L_3       
     e( 11 - 11) =     -4.12265  eV     1   --> A_1  L_1       
     e( 12 - 12) =      5.39123  eV     1   --> A_1  L_1       
     e( 13 - 14) =      6.09514  eV     2   --> E    L_3       
     e( 15 - 15) =      6.59807  eV     1   --> A_1  L_1       
     e( 16 - 17) =      6.66008  eV     2   --> E    L_3       
     e( 18 - 19) =     10.36488  eV     2   --> E    L_3       
     e( 20 - 20) =     10.41115  eV     1   --> A_2  L_2       
     e( 21 - 21) =     14.16824  eV     1   --> A_1  L_1       
     e( 22 - 23) =     14.17414  eV     2   --> E    L_3       
     e( 24 - 25) =     17.87401  eV     2   --> E    L_3       
     e( 26 - 26) =     17.95933  eV     1   --> A_1  L_1       

 **************************************************************************

 **************************************************************************

                    xk=(   0.42500,   0.42500,   0.42500  )

     Band symmetry, C_3v (3m)   point group:

     e(  1 -  1) =    -53.11956  eV     1   --> A_1  L_1       
     e(  2 -  4) =    -26.98700  eV     3   --> A_1  L_1       
     e(  2 -  4) =    -26.98700  eV     3   --> E    L_3       
     e(  5 -  5) =    -21.80430  eV     1   --> A_1  L_1       
     e(  6 -  6) =     -6.09600  eV     1   --> A_1  L_1       
     e(  7 -  8) =     -5.93781  eV     2   --> E    L_3       
     e(  9 - 10) =     -4.14899  eV     2   --> E    L_3       
     e( 11 - 11) =     -4.02876  eV     1   --> A_1  L_1       
     e( 12 - 12) =      5.47611  eV     1   --> A_1  L_1       
     e( 13 - 14) =      6.14411  eV     2   --> E    L_3       
     e( 15 - 15) =      6.55920  eV     1   --> A_1  L_1       
     e( 16 - 17) =      6.68876  eV     2   --> E    L_3       
     e( 18 - 19) =     10.27296  eV     2   --> E    L_3       
     e( 20 - 20) =     10.37040  eV     1   --> A_2  L_2       
     e( 21 - 21) =     14.10723  eV     1   --> A_1  L_1       
     e( 22 - 23) =     14.11956  eV     2   --> E    L_3       
     e( 24 - 24) =     17.81837  eV     1   -->   ?
     e( 25 - 25) =     17.81854  eV     1   -->   ?
     e( 26 - 26) =     18.08985  eV     1   -->   ?

 **************************************************************************

 **************************************************************************

                    xk=(   0.40000,   0.40000,   0.40000  )

     Band symmetry, C_3v (3m)   point group:

     e(  1 -  1) =    -53.11964  eV     1   --> A_1  L_1       
     e(  2 -  2) =    -26.98579  eV     1   --> A_1  L_1       
     e(  3 -  4) =    -26.98562  eV     2   --> E    L_3       
     e(  5 -  5) =    -21.80720  eV     1   --> A_1  L_1       
     e(  6 -  6) =     -6.21945  eV     1   --> A_1  L_1       
     e(  7 -  8) =     -5.96418  eV     2   --> E    L_3       
     e(  9 - 10) =     -4.10684  eV     2   --> E    L_3       
     e( 11 - 11) =     -3.91998  eV     1   --> A_1  L_1       
     e( 12 - 12) =      5.58445  eV     1   --> A_1  L_1       
     e( 13 - 14) =      6.21081  eV     2   --> E    L_3       
     e( 15 - 15) =      6.52546  eV     1   --> A_1  L_1       
     e( 16 - 17) =      6.73065  eV     2   --> E    L_3       
     e( 18 - 19) =     10.15713  eV     2   --> E    L_3       
     e( 20 - 20) =     10.31530  eV     1   --> A_2  L_2       
     e( 21 - 21) =     14.02454  eV     1   --> A_1  L_1       
     e( 22 - 23) =     14.04460  eV     2   --> E    L_3       
     e( 24 - 25) =     17.68961  eV     2   --> E    L_3       
     e( 26 - 26) =     18.24505  eV     1   -->   ?

 **************************************************************************

 **************************************************************************

                    xk=(   0.37500,   0.37500,   0.37500  )

     Band symmetry, C_3v (3m)   point group:

     e(  1 -  1) =    -53.11975  eV     1   --> A_1  L_1       
     e(  2 -  2) =    -26.98425  eV     1   --> A_1  L_1       
     e(  3 -  4) =    -26.98401  eV     2   --> E    L_3       
     e(  5 -  5) =    -21.81078  eV     1   --> A_1  L_1       
     e(  6 -  6) =     -6.35263  eV     1   --> A_1  L_1       
     e(  7 -  8) =     -5.99336  eV     2   --> E    L_3       
     e(  9 - 10) =     -4.05931  eV     2   --> E    L_3       
     e( 11 - 11) =     -3.80860  eV     1   --> A_1  L_1       
     e( 12 - 12) =      5.70220  eV     1   --> A_1  L_1       
     e( 13 - 14) =      6.29325  eV     2   --> E    L_3       
     e( 15 - 15) =      6.51889  eV     1   --> A_1  L_1       
     e( 16 - 17) =      6.78753  eV     2   --> E    L_3       
     e( 18 - 19) =     10.02737  eV     2   --> E    L_3       
     e( 20 - 20) =     10.24764  eV     1   --> A_2  L_2       
     e( 21 - 21) =     13.92219  eV     1   --> A_1  L_1       
     e( 22 - 23) =     13.95069  eV     2   --> E    L_3       
     e( 24 - 25) =     17.51333  eV     2   --> E    L_3       
     e( 26 - 26) =     18.40322  eV     1   -->   ?

 **************************************************************************

 **************************************************************************

                    xk=(   0.35000,   0.35000,   0.35000  )

     Band symmetry, C_3v (3m)   point group:

     e(  1 -  1) =    -53.11989  eV     1   --> A_1  L_1       
     e(  2 -  2) =    -26.98246  eV     1   --> A_1  L_1       
     e(  3 -  4) =    -26.98212  eV     2   --> E    L_3       
     e(  5 -  5) =    -21.81501  eV     1   --> A_1  L_1       
     e(  6 -  6) =     -6.48761  eV     1   --> A_1  L_1       
     e(  7 -  8) =     -6.02306  eV     2   --> E    L_3       
     e(  9 - 10) =     -4.00999  eV     2   --> E    L_3       
     e( 11 - 11) =     -3.70454  eV     1   --> A_1  L_1       
     e( 12 - 12) =      5.80922  eV     1   --> A_1  L_1       
     e( 13 - 14) =      6.38871  eV     2   --> E    L_3       
     e( 15 - 15) =      6.56740  eV     1   --> A_1  L_1       
     e( 16 - 17) =      6.86152  eV     2   --> E    L_3       
     e( 18 - 19) =      9.89373  eV     2   --> E    L_3       
     e( 20 - 20) =     10.16956  eV     1   --> A_2  L_2       
     e( 21 - 21) =     13.80214  eV     1   --> A_1  L_1       
     e( 22 - 23) =     13.83950  eV     2   --> E    L_3       
     e( 24 - 25) =     17.30160  eV     2   --> E    L_3       
     e( 26 - 26) =     18.54334  eV     1   --> A_1  L_1       

 **************************************************************************

 **************************************************************************

                    xk=(   0.32500,   0.32500,   0.32500  )

     Band symmetry, C_3v (3m)   point group:

     e(  1 -  1) =    -53.12003  eV     1   --> A_1  L_1       
     e(  2 -  2) =    -26.98043  eV     1   --> A_1  L_1       
     e(  3 -  4) =    -26.98000  eV     2   --> E    L_3       
     e(  5 -  5) =    -21.81980  eV     1   --> A_1  L_1       
     e(  6 -  6) =     -6.61861  eV     1   --> A_1  L_1       
     e(  7 -  8) =     -6.05128  eV     2   --> E    L_3       
     e(  9 - 10) =     -3.96221  eV     2   --> E    L_3       
     e( 11 - 11) =     -3.61540  eV     1   --> A_1  L_1       
     e( 12 - 12) =      5.89117  eV     1   --> A_1  L_1       
     e( 13 - 14) =      6.49377  eV     2   --> E    L_3       
     e( 15 - 15) =      6.69173  eV     1   --> A_1  L_1       
     e( 16 - 17) =      6.95498  eV     2   --> E    L_3       
     e( 18 - 19) =      9.76556  eV     2   --> E    L_3       
     e( 20 - 20) =     10.08342  eV     1   --> A_2  L_2       
     e( 21 - 21) =     13.66618  eV     1   --> A_1  L_1       
     e( 22 - 23) =     13.71300  eV     2   --> E    L_3       
     e( 24 - 24) =     17.06150  eV     1   -->   ?
     e( 25 - 25) =     17.06162  eV     1   -->   ?
     e( 26 - 26) =     18.65043  eV     1   -->   ?

 **************************************************************************

 **************************************************************************

                    xk=(   0.30000,   0.30000,   0.30000  )

     Band symmetry, C_3v (3m)   point group:

     e(  1 -  1) =    -53.12018  eV     1   --> A_1  L_1       
     e(  2 -  2) =    -26.97821  eV     1   --> A_1  L_1       
     e(  3 -  4) =    -26.97769  eV     2   --> E    L_3       
     e(  5 -  5) =    -21.82505  eV     1   --> A_1  L_1       
     e(  6 -  6) =     -6.74137  eV     1   --> A_1  L_1       
     e(  7 -  8) =     -6.07643  eV     2   --> E    L_3       
     e(  9 - 10) =     -3.91890  eV     2   --> E    L_3       
     e( 11 - 11) =     -3.54682  eV     1   --> A_1  L_1       
     e( 12 - 12) =      5.95588  eV     1   --> A_1  L_1       
     e( 13 - 14) =      6.60450  eV     2   --> E    L_3       
     e( 15 - 15) =      6.88836  eV     1   --> A_1  L_1       
     e( 16 - 17) =      7.07005  eV     2   --> E    L_3       
     e( 18 - 19) =      9.65123  eV     2   --> E    L_3       
     e( 20 - 20) =      9.99169  eV     1   --> A_2  L_2       
     e( 21 - 21) =     13.51621  eV     1   --> A_1  L_1       
     e( 22 - 23) =     13.57327  eV     2   --> E    L_3       
     e( 24 - 25) =     16.79850  eV     2   --> E    L_3       
     e( 26 - 26) =     18.71559  eV     1   -->   ?

 **************************************************************************

 **************************************************************************

                    xk=(   0.27500,   0.27500,   0.27500  )

     Band symmetry, C_3v (3m)   point group:

     e(  1 -  1) =    -53.12035  eV     1   --> A_1  L_1       
     e(  2 -  2) =    -26.97588  eV     1   --> A_1  L_1       
     e(  3 -  4) =    -26.97527  eV     2   --> E    L_3       
     e(  5 -  5) =    -21.83069  eV     1   --> A_1  L_1       
     e(  6 -  6) =     -6.85293  eV     1   --> A_1  L_1       
     e(  7 -  8) =     -6.09736  eV     2   --> E    L_3       
     e(  9 - 10) =     -3.88238  eV     2   --> E    L_3       
     e( 11 - 11) =     -3.50236  eV     1   --> A_1  L_1       
     e( 12 - 12) =      6.02367  eV     1   --> A_1  L_1       
     e( 13 - 14) =      6.71683  eV     2   --> E    L_3       
     e( 15 - 15) =      7.13831  eV     1   --> A_1  L_1       
     e( 16 - 17) =      7.20806  eV     2   --> E    L_3       
     e( 18 - 19) =      9.55802  eV     2   --> E    L_3       
     e( 20 - 20) =      9.89689  eV     1   --> A_2  L_2       
     e( 21 - 21) =     13.35415  eV     1   --> A_1  L_1       
     e( 22 - 23) =     13.42237  eV     2   --> E    L_3       
     e( 24 - 25) =     16.51774  eV     2   --> E    L_3       
     e( 26 - 26) =     18.59388  eV     1   -->   ?

 **************************************************************************

 **************************************************************************

                    xk=(   0.25000,   0.25000,   0.25000  )

     Band symmetry, C_3v (3m)   point group:

     e(  1 -  1) =    -53.12053  eV     1   --> A_1  L_1       
     e(  2 -  2) =    -26.97344  eV     1   --> A_1  L_1       
     e(  3 -  4) =    -26.97279  eV     2   --> E    L_3       
     e(  5 -  5) =    -21.83663  eV     1   --> A_1  L_1       
     e(  6 -  6) =     -6.95124  eV     1   --> A_1  L_1       
     e(  7 -  8) =     -6.11336  eV     2   --> E    L_3       
     e(  9 - 10) =     -3.85428  eV     2   --> E    L_3       
     e( 11 - 11) =     -3.48344  eV     1   --> A_1  L_1       
     e( 12 - 12) =      6.10989  eV     1   --> A_1  L_1       
     e( 13 - 14) =      6.82690  eV     2   --> E    L_3       
     e( 15 - 16) =      7.36906  eV     2   --> E    L_3       
     e( 17 - 17) =      7.42435  eV     1   --> A_1  L_1       
     e( 18 - 19) =      9.49197  eV     2   --> E    L_3       
     e( 20 - 20) =      9.80146  eV     1   --> A_2  L_2       
     e( 21 - 21) =     13.18235  eV     1   --> A_1  L_1       
     e( 22 - 23) =     13.26229  eV     2   --> E    L_3       
     e( 24 - 25) =     16.22420  eV     2   --> E    L_3       
     e( 26 - 26) =     18.37628  eV     1   -->   ?

 **************************************************************************

 **************************************************************************

                    xk=(   0.22500,   0.22500,   0.22500  )

     Band symmetry, C_3v (3m)   point group:

     e(  1 -  1) =    -53.12070  eV     1   --> A_1  L_1       
     e(  2 -  2) =    -26.97097  eV     1   --> A_1  L_1       
     e(  3 -  4) =    -26.97028  eV     2   --> E    L_3       
     e(  5 -  5) =    -21.84271  eV     1   --> A_1  L_1       
     e(  6 -  6) =     -7.03512  eV     1   --> A_1  L_1       
     e(  7 -  8) =     -6.12409  eV     2   --> E    L_3       
     e(  9 - 10) =     -3.83539  eV     2   --> E    L_3       
     e( 11 - 11) =     -3.48938  eV     1   --> A_1  L_1       
     e( 12 - 12) =      6.22101  eV     1   --> A_1  L_1       
     e( 13 - 14) =      6.93110  eV     2   --> E    L_3       
     e( 15 - 16) =      7.55192  eV     2   --> E    L_3       
     e( 17 - 17) =      7.73451  eV     1   --> A_1  L_1       
     e( 18 - 19) =      9.45776  eV     2   --> E    L_3       
     e( 20 - 20) =      9.70775  eV     1   --> A_2  L_2       
     e( 21 - 21) =     13.00356  eV     1   --> A_1  L_1       
     e( 22 - 23) =     13.09490  eV     2   --> E    L_3       
     e( 24 - 25) =     15.92300  eV     2   --> E    L_3       
     e( 26 - 26) =     18.11207  eV     1   -->   ?

 **************************************************************************

 **************************************************************************

                    xk=(   0.20000,   0.20000,   0.20000  )

     Band symmetry, C_3v (3m)   point group:

     e(  1 -  1) =    -53.12087  eV     1   --> A_1  L_1       
     e(  2 -  2) =    -26.96852  eV     1   --> A_1  L_1       
     e(  3 -  4) =    -26.96783  eV     2   --> E    L_3       
     e(  5 -  5) =    -21.84885  eV     1   --> A_1  L_1       
     e(  6 -  6) =     -7.10413  eV     1   --> A_1  L_1       
     e(  7 -  8) =     -6.12967  eV     2   --> E    L_3       
     e(  9 - 10) =     -3.82581  eV     2   --> E    L_3       
     e( 11 - 11) =     -3.51757  eV     1   --> A_1  L_1       
     e( 12 - 12) =      6.35667  eV     1   --> A_1  L_1       
     e( 13 - 14) =      7.02591  eV     2   --> E    L_3       
     e( 15 - 16) =      7.75445  eV     2   --> E    L_3       
     e( 17 - 17) =      8.06003  eV     1   --> A_1  L_1       
     e( 18 - 19) =      9.45818  eV     2   --> E    L_3       
     e( 20 - 20) =      9.61793  eV     1   --> A_2  L_2       
     e( 21 - 21) =     12.82079  eV     1   --> A_1  L_1       
     e( 22 - 23) =     12.92168  eV     2   --> E    L_3       
     e( 24 - 25) =     15.61938  eV     2   --> E    L_3       
     e( 26 - 26) =     17.82328  eV     1   -->   ?

 **************************************************************************

 **************************************************************************

                    xk=(   0.17500,   0.17500,   0.17500  )

     Band symmetry, C_3v (3m)   point group:

     e(  1 -  1) =    -53.12103  eV     1   --> A_1  L_1       
     e(  2 -  2) =    -26.96617  eV     1   --> A_1  L_1       
     e(  3 -  4) =    -26.96551  eV     2   --> E    L_3       
     e(  5 -  5) =    -21.85488  eV     1   --> A_1  L_1       
     e(  6 -  6) =     -7.15858  eV     1   --> A_1  L_1       
     e(  7 -  8) =     -6.13055  eV     2   --> E    L_3       
     e(  9 - 10) =     -3.82478  eV     2   --> E    L_3       
     e( 11 - 11) =     -3.56368  eV     1   --> A_1  L_1       
     e( 12 - 12) =      6.51175  eV     1   --> A_1  L_1       
     e( 13 - 14) =      7.10833  eV     2   --> E    L_3       
     e( 15 - 16) =      7.97360  eV     2   --> E    L_3       
     e( 17 - 17) =      8.39353  eV     1   --> A_1  L_1       
     e( 18 - 19) =      9.49343  eV     2   --> E    L_3       
     e( 20 - 20) =      9.53398  eV     1   --> A_2  L_2       
     e( 21 - 21) =     12.63758  eV     1   --> A_1  L_1       
     e( 22 - 23) =     12.74389  eV     2   --> E    L_3       
     e( 24 - 25) =     15.31917  eV     2   --> E    L_3       
     e( 26 - 26) =     17.52487  eV     1   -->   ?

 **************************************************************************

 **************************************************************************

                    xk=(   0.15000,   0.15000,   0.15000  )

     Band symmetry, C_3v (3m)   point group:

     e(  1 -  1) =    -53.12118  eV     1   --> A_1  L_1       
     e(  2 -  2) =    -26.96394  eV     1   --> A_1  L_1       
     e(  3 -  4) =    -26.96338  eV     2   --> E    L_3       
     e(  5 -  5) =    -21.86064  eV     1   --> A_1  L_1       
     e(  6 -  6) =     -7.19943  eV     1   --> A_1  L_1       
     e(  7 -  8) =     -6.12749  eV     2   --> E    L_3       
     e(  9 - 10) =     -3.83086  eV     2   --> E    L_3       
     e( 11 - 11) =     -3.62211  eV     1   --> A_1  L_1       
     e( 12 - 12) =      6.67803  eV     1   --> A_1  L_1       
     e( 13 - 14) =      7.17654  eV     2   --> E    L_3       
     e( 15 - 16) =      8.20497  eV     2   --> E    L_3       
     e( 17 - 17) =      8.72766  eV     1   --> A_1  L_1       
     e( 18 - 18) =      9.45765  eV     1   --> A_2  L_2       
     e( 19 - 20) =      9.56051  eV     2   --> E    L_3       
     e( 21 - 21) =     12.45763  eV     1   --> A_1  L_1       
     e( 22 - 23) =     12.56288  eV     2   --> E    L_3       
     e( 24 - 25) =     15.02891  eV     2   --> E    L_3       
     e( 26 - 26) =     17.22925  eV     1   -->   ?

 **************************************************************************

 **************************************************************************

                    xk=(   0.12500,   0.12500,   0.12500  )

     Band symmetry, C_3v (3m)   point group:

     e(  1 -  1) =    -53.12131  eV     1   --> A_1  L_1       
     e(  2 -  2) =    -26.96190  eV     1   --> A_1  L_1       
     e(  3 -  4) =    -26.96145  eV     2   --> E    L_3       
     e(  5 -  5) =    -21.86594  eV     1   --> A_1  L_1       
     e(  6 -  6) =     -7.22824  eV     1   --> A_1  L_1       
     e(  7 -  8) =     -6.12156  eV     2   --> E    L_3       
     e(  9 - 10) =     -3.84204  eV     2   --> E    L_3       
     e( 11 - 11) =     -3.68666  eV     1   --> A_1  L_1       
     e( 12 - 12) =      6.84524  eV     1   --> A_1  L_1       
     e( 13 - 14) =      7.23025  eV     2   --> E    L_3       
     e( 15 - 16) =      8.44201  eV     2   --> E    L_3       
     e( 17 - 17) =      9.05412  eV     1   --> A_1  L_1       
     e( 18 - 18) =      9.39049  eV     1   --> A_2  L_2       
     e( 19 - 20) =      9.65301  eV     2   --> E    L_3       
     e( 21 - 21) =     12.28469  eV     1   --> A_1  L_1       
     e( 22 - 23) =     12.38060  eV     2   --> E    L_3       
     e( 24 - 25) =     14.75612  eV     2   --> E    L_3       
     e( 26 - 26) =     16.94858  eV     1   -->   ?

 **************************************************************************

 **************************************************************************

                    xk=(   0.10000,   0.10000,   0.10000  )

     Band symmetry, C_3v (3m)   point group:

     e(  1 -  1) =    -53.12141  eV     1   --> A_1  L_1       
     e(  2 -  2) =    -26.96012  eV     1   --> A_1  L_1       
     e(  3 -  4) =    -26.95981  eV     2   --> E    L_3       
     e(  5 -  5) =    -21.87059  eV     1   --> A_1  L_1       
     e(  6 -  6) =     -7.24705  eV     1   --> A_1  L_1       
     e(  7 -  8) =     -6.11403  eV     2   --> E    L_3       
     e(  9 - 10) =     -3.85598  eV     2   --> E    L_3       
     e( 11 - 11) =     -3.75083  eV     1   --> A_1  L_1       
     e( 12 - 12) =      7.00225  eV     1   --> A_1  L_1       
     e( 13 - 14) =      7.27050  eV     2   --> E    L_3       
     e( 15 - 16) =      8.67491  eV     2   --> E    L_3       
     e( 17 - 17) =      9.33380  eV     1   --> A_2  L_2       
     e( 18 - 18) =      9.36257  eV     1   --> A_1  L_1       
     e( 19 - 20) =      9.76136  eV     2   --> E    L_3       
     e( 21 - 21) =     12.12285  eV     1   --> A_1  L_1       
     e( 22 - 23) =     12.20067  eV     2   --> E    L_3       
     e( 24 - 25) =     14.50962  eV     2   --> E    L_3       
     e( 26 - 26) =     16.69553  eV     1   -->   ?

 **************************************************************************

 **************************************************************************

                    xk=(   0.07500,   0.07500,   0.07500  )

     Band symmetry, C_3v (3m)   point group:

     e(  1 -  1) =    -53.12151  eV     1   --> A_1  L_1       
     e(  2 -  2) =    -26.95870  eV     1   --> A_1  L_1       
     e(  3 -  4) =    -26.95852  eV     2   --> E    L_3       
     e(  5 -  5) =    -21.87446  eV     1   --> A_1  L_1       
     e(  6 -  6) =     -7.25823  eV     1   --> A_1  L_1       
     e(  7 -  8) =     -6.10629  eV     2   --> E    L_3       
     e(  9 - 10) =     -3.87023  eV     2   --> E    L_3       
     e( 11 - 11) =     -3.80849  eV     1   --> A_1  L_1       
     e( 12 - 12) =      7.13812  eV     1   --> A_1  L_1       
     e( 13 - 14) =      7.29908  eV     2   --> E    L_3       
     e( 15 - 16) =      8.88962  eV     2   --> E    L_3       
     e( 17 - 17) =      9.28860  eV     1   --> A_2  L_2       
     e( 18 - 18) =      9.63933  eV     1   --> A_1  L_1       
     e( 19 - 20) =      9.87333  eV     2   --> E    L_3       
     e( 21 - 21) =     11.97714  eV     1   --> A_1  L_1       
     e( 22 - 23) =     12.03032  eV     2   --> E    L_3       
     e( 24 - 25) =     14.29959  eV     2   --> E    L_3       
     e( 26 - 26) =     16.48225  eV     1   -->   ?

 **************************************************************************

 **************************************************************************

                    xk=(   0.05000,   0.05000,   0.05000  )

     Band symmetry, C_3v (3m)   point group:

     e(  1 -  1) =    -53.12158  eV     1   --> A_1  L_1       
     e(  2 -  4) =    -26.95764  eV     3   --> A_1  L_1       
     e(  2 -  4) =    -26.95764  eV     3   --> E    L_3       
     e(  5 -  5) =    -21.87734  eV     1   --> A_1  L_1       
     e(  6 -  6) =     -7.26410  eV     1   --> A_1  L_1       
     e(  7 -  8) =     -6.09960  eV     2   --> E    L_3       
     e(  9 - 10) =     -3.88239  eV     2   --> E    L_3       
     e( 11 - 11) =     -3.85409  eV     1   --> A_1  L_1       
     e( 12 - 12) =      7.24307  eV     1   --> A_1  L_1       
     e( 13 - 14) =      7.31794  eV     2   --> E    L_3       
     e( 15 - 16) =      9.06745  eV     2   --> E    L_3       
     e( 17 - 17) =      9.25573  eV     1   --> A_2  L_2       
     e( 18 - 18) =      9.86596  eV     1   --> A_1  L_1       
     e( 19 - 20) =      9.97421  eV     2   --> E    L_3       
     e( 21 - 21) =     11.85564  eV     1   --> A_1  L_1       
     e( 22 - 23) =     11.88296  eV     2   --> E    L_3       
     e( 24 - 25) =     14.13755  eV     2   --> E    L_3       
     e( 26 - 26) =     16.32048  eV     1   -->   ?

 **************************************************************************

 **************************************************************************

                    xk=(   0.02500,   0.02500,   0.02500  )

     Band symmetry, C_3v (3m)   point group:

     e(  1 -  1) =    -53.12163  eV     1   --> A_1  L_1       
     e(  2 -  4) =    -26.95701  eV     3   --> A_1  L_1       
     e(  2 -  4) =    -26.95701  eV     3   --> E    L_3       
     e(  5 -  5) =    -21.87914  eV     1   --> A_1  L_1       
     e(  6 -  6) =     -7.26670  eV     1   --> A_1  L_1       
     e(  7 -  8) =     -6.09512  eV     2   --> E    L_3       
     e(  9 - 10) =     -3.89055  eV     2   --> E    L_3       
     e( 11 - 11) =     -3.88336  eV     1   --> A_1  L_1       
     e( 12 - 12) =      7.30936  eV     1   --> A_1  L_1       
     e( 13 - 14) =      7.32859  eV     2   --> E    L_3       
     e( 15 - 16) =      9.18680  eV     2   --> E    L_3       
     e( 17 - 17) =      9.23579  eV     1   --> A_2  L_2       
     e( 18 - 18) =     10.01878  eV     1   --> A_1  L_1       
     e( 19 - 20) =     10.04667  eV     2   --> E    L_3       
     e( 21 - 21) =     11.77149  eV     1   --> A_1  L_1       
     e( 22 - 23) =     11.77893  eV     2   --> E    L_3       
     e( 24 - 25) =     14.03453  eV     2   --> E    L_3       
     e( 26 - 26) =     16.21948  eV     1   -->   ?

 **************************************************************************

 **************************************************************************

                    xk=(   0.00000,   0.00000,   0.00000  )

     point group O_h (m-3m) 
     there are 10 classes
     the character table:

       E     8C3   3C2   6C4   6C2'  i     8S6   3s_h  6S4   6s_d 
A_1g   1.00  1.00  1.00  1.00  1.00  1.00  1.00  1.00  1.00  1.00
A_2g   1.00  1.00  1.00 -1.00 -1.00  1.00  1.00  1.00 -1.00 -1.00
E_g    2.00 -1.00  2.00  0.00  0.00  2.00 -1.00  2.00  0.00  0.00
T_1g   3.00  0.00 -1.00  1.00 -1.00  3.00  0.00 -1.00  1.00 -1.00
T_2g   3.00  0.00 -1.00 -1.00  1.00  3.00  0.00 -1.00 -1.00  1.00
A_1u   1.00  1.00  1.00  1.00  1.00 -1.00 -1.00 -1.00 -1.00 -1.00
A_2u   1.00  1.00  1.00 -1.00 -1.00 -1.00 -1.00 -1.00  1.00  1.00
E_u    2.00 -1.00  2.00  0.00  0.00 -2.00  1.00 -2.00  0.00  0.00
T_1u   3.00  0.00 -1.00  1.00 -1.00 -3.00  0.00  1.00 -1.00  1.00
T_2u   3.00  0.00 -1.00 -1.00  1.00 -3.00  0.00  1.00  1.00 -1.00

     the symmetry operations in each class and the name of the first element:

     E        1
                                                                 
     8C3     17   19   20   18   24   21   22   23
                                                                 
     3C2      2    4    3
                                                                 
     6C4      7    8   15   16   12   11
                                                                 
     6C2'     5    6   14   13   10    9
                                                                 
     i       25
                                                                 
     8S6     41   43   44   42   48   45   46   47
                                                                 
     3s_h    26   28   27
                                                                 
     6S4     31   32   39   40   36   35
                                                                 
     6s_d    29   30   38   37   34   33
                                                                 

     Band symmetry, O_h (m-3m)  point group:

     e(  1 -  1) =    -53.12164  eV     1   --> A_1g G_1   G_1+
     e(  2 -  4) =    -26.95677  eV     3   --> T_1u G_15  G_4-
     e(  5 -  5) =    -21.87974  eV     1   --> A_1g G_1   G_1+
     e(  6 -  6) =     -7.26740  eV     1   --> A_1g G_1   G_1+
     e(  7 -  8) =     -6.09353  eV     2   --> E_g  G_12  G_3+
     e(  9 - 11) =     -3.89341  eV     3   --> T_1u G_15  G_4-
     e( 12 - 14) =      7.33204  eV     3   --> T_1u G_15  G_4-
     e( 15 - 17) =      9.22909  eV     3   --> T_2u G_25  G_5-
     e( 18 - 20) =     10.07348  eV     3   --> T_1u G_15  G_4-
     e( 21 - 23) =     11.74077  eV     3   --> T_2g G_25' G_5+
     e( 24 - 25) =     13.99913  eV     2   --> E_g  G_12  G_3+
     e( 26 - 26) =     16.18509  eV     1   -->   ?

 **************************************************************************

 **************************************************************************

                    xk=(   0.00000,   0.02500,   0.00000  )

     point group C_4v (4mm) 
     there are  5 classes
     the character table:

       E     2C4   C2    2s_v  2s_d 
A_1    1.00  1.00  1.00  1.00  1.00
A_2    1.00  1.00  1.00 -1.00 -1.00
B_1    1.00 -1.00  1.00  1.00 -1.00
B_2    1.00 -1.00  1.00 -1.00  1.00
E      2.00  0.00 -2.00  0.00  0.00

     the symmetry operations in each class and the name of the first element:

     E        1
                                                                 
     2C4      3    4
                                                                 
     C2       2
                                                                 
     2s_v     5    6
                                                                 
     2s_d     7    8
                                                                 

     Band symmetry, C_4v (4mm)  point group:

     e(  1 -  1) =    -53.12164  eV     1   --> A_1  G_1 D_1   
     e(  2 -  2) =    -26.95701  eV     1   --> A_1  G_1 D_1   
     e(  3 -  4) =    -26.95676  eV     2   --> E    G_5 D_5   
     e(  5 -  5) =    -21.87954  eV     1   --> A_1  G_1 D_1   
     e(  6 -  6) =     -7.26718  eV     1   --> A_1  G_1 D_1   
     e(  7 -  7) =     -6.09485  eV     1   --> A_1  G_1 D_1   
     e(  8 -  8) =     -6.09326  eV     1   --> B_1  G_3 D_2   
     e(  9 - 10) =     -3.89302  eV     2   --> E    G_5 D_5   
     e( 11 - 11) =     -3.88889  eV     1   --> A_1  G_1 D_1   
     e( 12 - 12) =      7.32292  eV     1   --> A_1  G_1 D_1   
     e( 13 - 14) =      7.33166  eV     2   --> E    G_5 D_5   
     e( 15 - 16) =      9.21898  eV     2   --> E    G_5 D_5   
     e( 17 - 17) =      9.22301  eV     1   --> B_1  G_3 D_2   
     e( 18 - 18) =     10.05039  eV     1   --> A_1  G_1 D_1   
     e( 19 - 20) =     10.06674  eV     2   --> E    G_5 D_5   
     e( 21 - 21) =     11.74152  eV     1   --> B_2  G_4 D_2'  
     e( 22 - 23) =     11.75856  eV     2   --> E    G_5 D_5   
     e( 24 - 24) =     13.99931  eV     1   --> B_1  G_3 D_2   
     e( 25 - 25) =     14.02256  eV     1   --> A_1  G_1 D_1   
     e( 26 - 26) =     16.19618  eV     1   -->   ?

 **************************************************************************

 **************************************************************************

                    xk=(   0.00000,   0.05000,   0.00000  )

     Band symmetry, C_4v (4mm)  point group:

     e(  1 -  1) =    -53.12163  eV     1   --> A_1  G_1 D_1   
     e(  2 -  2) =    -26.95769  eV     1   --> A_1  G_1 D_1   
     e(  3 -  4) =    -26.95675  eV     2   --> E    G_5 D_5   
     e(  5 -  5) =    -21.87895  eV     1   --> A_1  G_1 D_1   
     e(  6 -  6) =     -7.26668  eV     1   --> A_1  G_1 D_1   
     e(  7 -  7) =     -6.09857  eV     1   --> A_1  G_1 D_1   
     e(  8 -  8) =     -6.09245  eV     1   --> B_1  G_3 D_2   
     e(  9 - 10) =     -3.89188  eV     2   --> E    G_5 D_5   
     e( 11 - 11) =     -3.87551  eV     1   --> A_1  G_1 D_1   
     e( 12 - 12) =      7.29583  eV     1   --> A_1  G_1 D_1   
     e( 13 - 14) =      7.33053  eV     2   --> E    G_5 D_5   
     e( 15 - 16) =      9.18906  eV     2   --> E    G_5 D_5   
     e( 17 - 17) =      9.20500  eV     1   --> B_1  G_3 D_2   
     e( 18 - 18) =      9.98345  eV     1   --> A_1  G_1 D_1   
     e( 19 - 20) =     10.04787  eV     2   --> E    G_5 D_5   
     e( 21 - 21) =     11.74369  eV     1   --> B_2  G_4 D_2'  
     e( 22 - 23) =     11.81019  eV     2   --> E    G_5 D_5   
     e( 24 - 24) =     13.99977  eV     1   --> B_1  G_3 D_2   
     e( 25 - 25) =     14.09061  eV     1   --> A_1  G_1 D_1   
     e( 26 - 26) =     16.23000  eV     1   -->   ?

 **************************************************************************

 **************************************************************************

                    xk=(   0.00000,   0.07500,   0.00000  )

     Band symmetry, C_4v (4mm)  point group:

     e(  1 -  1) =    -53.12160  eV     1   --> A_1  G_1 D_1   
     e(  2 -  2) =    -26.95876  eV     1   --> A_1  G_1 D_1   
     e(  3 -  4) =    -26.95669  eV     2   --> E    G_5 D_5   
     e(  5 -  5) =    -21.87795  eV     1   --> A_1  G_1 D_1   
     e(  6 -  6) =     -7.26615  eV     1   --> A_1  G_1 D_1   
     e(  7 -  7) =     -6.10400  eV     1   --> A_1  G_1 D_1   
     e(  8 -  8) =     -6.09111  eV     1   --> B_1  G_3 D_2   
     e(  9 - 10) =     -3.88999  eV     2   --> E    G_5 D_5   
     e( 11 - 11) =     -3.85386  eV     1   --> A_1  G_1 D_1   
     e( 12 - 12) =      7.25140  eV     1   --> A_1  G_1 D_1   
     e( 13 - 14) =      7.32873  eV     2   --> E    G_5 D_5   
     e( 15 - 16) =      9.14071  eV     2   --> E    G_5 D_5   
     e( 17 - 17) =      9.17581  eV     1   --> B_1  G_3 D_2   
     e( 18 - 18) =      9.87885  eV     1   --> A_1  G_1 D_1   
     e( 19 - 20) =     10.02011  eV     2   --> E    G_5 D_5   
     e( 21 - 21) =     11.74735  eV     1   --> B_2  G_4 D_2'  
     e( 22 - 23) =     11.89114  eV     2   --> E    G_5 D_5   
     e( 24 - 24) =     14.00046  eV     1   --> B_1  G_3 D_2   
     e( 25 - 25) =     14.19709  eV     1   --> A_1  G_1 D_1   
     e( 26 - 26) =     16.28903  eV     1   -->   ?

 **************************************************************************

 **************************************************************************

                    xk=(   0.00000,   0.10000,   0.00000  )

     Band symmetry, C_4v (4mm)  point group:

     e(  1 -  1) =    -53.12157  eV     1   --> A_1  G_1 D_1   
     e(  2 -  2) =    -26.96027  eV     1   --> A_1  G_1 D_1   
     e(  3 -  4) =    -26.95659  eV     2   --> E    G_5 D_5   
     e(  5 -  5) =    -21.87660  eV     1   --> A_1  G_1 D_1   
     e(  6 -  6) =     -7.26615  eV     1   --> A_1  G_1 D_1   
     e(  7 -  7) =     -6.11007  eV     1   --> A_1  G_1 D_1   
     e(  8 -  8) =     -6.08930  eV     1   --> B_1  G_3 D_2   
     e(  9 - 10) =     -3.88741  eV     2   --> E    G_5 D_5   
     e( 11 - 11) =     -3.82490  eV     1   --> A_1  G_1 D_1   
     e( 12 - 12) =      7.19071  eV     1   --> A_1  G_1 D_1   
     e( 13 - 14) =      7.32631  eV     2   --> E    G_5 D_5   
     e( 15 - 16) =      9.07617  eV     2   --> E    G_5 D_5   
     e( 17 - 17) =      9.13651  eV     1   --> B_1  G_3 D_2   
     e( 18 - 18) =      9.74489  eV     1   --> A_1  G_1 D_1   
     e( 19 - 20) =      9.98718  eV     2   --> E    G_5 D_5   
     e( 21 - 21) =     11.75235  eV     1   --> B_2  G_4 D_2'  
     e( 22 - 23) =     11.99533  eV     2   --> E    G_5 D_5   
     e( 24 - 24) =     14.00142  eV     1   --> B_1  G_3 D_2   
     e( 25 - 25) =     14.33360  eV     1   --> A_1  G_1 D_1   
     e( 26 - 26) =     16.35921  eV     1   -->   ?

 **************************************************************************

 **************************************************************************

                    xk=(   0.00000,   0.12500,   0.00000  )

     Band symmetry, C_4v (4mm)  point group:

     e(  1 -  1) =    -53.12153  eV     1   --> A_1  G_1 D_1   
     e(  2 -  2) =    -26.96214  eV     1   --> A_1  G_1 D_1   
     e(  3 -  4) =    -26.95651  eV     2   --> E    G_5 D_5   
     e(  5 -  5) =    -21.87493  eV     1   --> A_1  G_1 D_1   
     e(  6 -  6) =     -7.26722  eV     1   --> A_1  G_1 D_1   
     e(  7 -  7) =     -6.11549  eV     1   --> A_1  G_1 D_1   
     e(  8 -  8) =     -6.08705  eV     1   --> B_1  G_3 D_2   
     e(  9 - 10) =     -3.88421  eV     2   --> E    G_5 D_5   
     e( 11 - 11) =     -3.78975  eV     1   --> A_1  G_1 D_1   
     e( 12 - 12) =      7.11522  eV     1   --> A_1  G_1 D_1   
     e( 13 - 14) =      7.32338  eV     2   --> E    G_5 D_5   
     e( 15 - 16) =      8.99842  eV     2   --> E    G_5 D_5   
     e( 17 - 17) =      9.08860  eV     1   --> B_1  G_3 D_2   
     e( 18 - 18) =      9.59040  eV     1   --> A_1  G_1 D_1   
     e( 19 - 20) =      9.95208  eV     2   --> E    G_5 D_5   
     e( 21 - 21) =     11.75855  eV     1   --> B_2  G_4 D_2'  
     e( 22 - 23) =     12.11677  eV     2   --> E    G_5 D_5   
     e( 24 - 24) =     14.00250  eV     1   --> B_1  G_3 D_2   
     e( 25 - 25) =     14.49175  eV     1   --> A_1  G_1 D_1   
     e( 26 - 26) =     16.46420  eV     1   -->   ?

 **************************************************************************

 **************************************************************************

                    xk=(   0.00000,   0.15000,   0.00000  )

     Band symmetry, C_4v (4mm)  point group:

     e(  1 -  1) =    -53.12148  eV     1   --> A_1  G_1 D_1   
     e(  2 -  2) =    -26.96434  eV     1   --> A_1  G_1 D_1   
     e(  3 -  4) =    -26.95640  eV     2   --> E    G_5 D_5   
     e(  5 -  5) =    -21.87298  eV     1   --> A_1  G_1 D_1   
     e(  6 -  6) =     -7.27004  eV     1   --> A_1  G_1 D_1   
     e(  7 -  7) =     -6.11896  eV     1   --> A_1  G_1 D_1   
     e(  8 -  8) =     -6.08442  eV     1   --> B_1  G_3 D_2   
     e(  9 - 10) =     -3.88045  eV     2   --> E    G_5 D_5   
     e( 11 - 11) =     -3.74974  eV     1   --> A_1  G_1 D_1   
     e( 12 - 12) =      7.02671  eV     1   --> A_1  G_1 D_1   
     e( 13 - 14) =      7.32008  eV     2   --> E    G_5 D_5   
     e( 15 - 16) =      8.91084  eV     2   --> E    G_5 D_5   
     e( 17 - 17) =      9.03368  eV     1   --> B_1  G_3 D_2   
     e( 18 - 18) =      9.42342  eV     1   --> A_1  G_1 D_1   
     e( 19 - 20) =      9.91674  eV     2   --> E    G_5 D_5   
     e( 21 - 21) =     11.76585  eV     1   --> B_2  G_4 D_2'  
     e( 22 - 23) =     12.25011  eV     2   --> E    G_5 D_5   
     e( 24 - 24) =     14.00374  eV     1   --> B_1  G_3 D_2   
     e( 25 - 25) =     14.66318  eV     1   --> A_1  G_1 D_1   
     e( 26 - 26) =     16.56622  eV     1   -->   ?

 **************************************************************************

 **************************************************************************

                    xk=(   0.00000,   0.17500,   0.00000  )

     Band symmetry, C_4v (4mm)  point group:

     e(  1 -  1) =    -53.12144  eV     1   --> A_1  G_1 D_1   
     e(  2 -  2) =    -26.96682  eV     1   --> A_1  G_1 D_1   
     e(  3 -  4) =    -26.95629  eV     2   --> E    G_5 D_5   
     e(  5 -  5) =    -21.87079  eV     1   --> A_1  G_1 D_1   
     e(  6 -  6) =     -7.27513  eV     1   --> A_1  G_1 D_1   
     e(  7 -  7) =     -6.11928  eV     1   --> A_1  G_1 D_1   
     e(  8 -  8) =     -6.08146  eV     1   --> B_1  G_3 D_2   
     e(  9 - 10) =     -3.87624  eV     2   --> E    G_5 D_5   
     e( 11 - 11) =     -3.70621  eV     1   --> A_1  G_1 D_1   
     e( 12 - 12) =      6.92728  eV     1   --> A_1  G_1 D_1   
     e( 13 - 14) =      7.31657  eV     2   --> E    G_5 D_5   
     e( 15 - 16) =      8.81682  eV     2   --> E    G_5 D_5   
     e( 17 - 17) =      8.97358  eV     1   --> B_1  G_3 D_2   
     e( 18 - 18) =      9.25091  eV     1   --> A_1  G_1 D_1   
     e( 19 - 20) =      9.88222  eV     2   --> E    G_5 D_5   
     e( 21 - 21) =     11.77404  eV     1   --> B_2  G_4 D_2'  
     e( 22 - 23) =     12.39070  eV     2   --> E    G_5 D_5   
     e( 24 - 24) =     14.00495  eV     1   --> B_1  G_3 D_2   
     e( 25 - 25) =     14.84137  eV     1   --> A_1  G_1 D_1   
     e( 26 - 26) =     16.69662  eV     1   -->   ?

 **************************************************************************

 **************************************************************************

                    xk=(   0.00000,   0.20000,   0.00000  )

     Band symmetry, C_4v (4mm)  point group:

     e(  1 -  1) =    -53.12138  eV     1   --> A_1  G_1 D_1   
     e(  2 -  2) =    -26.96949  eV     1   --> A_1  G_1 D_1   
     e(  3 -  4) =    -26.95616  eV     2   --> E    G_5 D_5   
     e(  5 -  5) =    -21.86842  eV     1   --> A_1  G_1 D_1   
     e(  6 -  6) =     -7.28283  eV     1   --> A_1  G_1 D_1   
     e(  7 -  7) =     -6.11558  eV     1   --> A_1  G_1 D_1   
     e(  8 -  8) =     -6.07825  eV     1   --> B_1  G_3 D_2   
     e(  9 - 10) =     -3.87166  eV     2   --> E    G_5 D_5   
     e( 11 - 11) =     -3.66049  eV     1   --> A_1  G_1 D_1   
     e( 12 - 12) =      6.81930  eV     1   --> A_1  G_1 D_1   
     e( 13 - 14) =      7.31303  eV     2   --> E    G_5 D_5   
     e( 15 - 16) =      8.71945  eV     2   --> E    G_5 D_5   
     e( 17 - 17) =      8.91010  eV     1   --> B_1  G_3 D_2   
     e( 18 - 18) =      9.07847  eV     1   --> A_1  G_1 D_1   
     e( 19 - 20) =      9.84910  eV     2   --> E    G_5 D_5   
     e( 21 - 21) =     11.78297  eV     1   --> B_2  G_4 D_2'  
     e( 22 - 23) =     12.53473  eV     2   --> E    G_5 D_5   
     e( 24 - 24) =     14.00619  eV     1   --> B_1  G_3 D_2   
     e( 25 - 25) =     15.02078  eV     1   --> A_1  G_1 D_1   
     e( 26 - 26) =     16.84676  eV     1   -->   ?

 **************************************************************************

 **************************************************************************

                    xk=(   0.00000,   0.22500,   0.00000  )

     Band symmetry, C_4v (4mm)  point group:

     e(  1 -  1) =    -53.12133  eV     1   --> A_1  G_1 D_1   
     e(  2 -  2) =    -26.97229  eV     1   --> A_1  G_1 D_1   
     e(  3 -  4) =    -26.95602  eV     2   --> E    G_5 D_5   
     e(  5 -  5) =    -21.86591  eV     1   --> A_1  G_1 D_1   
     e(  6 -  6) =     -7.29328  eV     1   --> A_1  G_1 D_1   
     e(  7 -  7) =     -6.10741  eV     1   --> A_1  G_1 D_1   
     e(  8 -  8) =     -6.07487  eV     1   --> B_1  G_3 D_2   
     e(  9 - 10) =     -3.86683  eV     2   --> E    G_5 D_5   
     e( 11 - 11) =     -3.61390  eV     1   --> A_1  G_1 D_1   
     e( 12 - 12) =      6.70539  eV     1   --> A_1  G_1 D_1   
     e( 13 - 14) =      7.30964  eV     2   --> E    G_5 D_5   
     e( 15 - 16) =      8.62148  eV     2   --> E    G_5 D_5   
     e( 17 - 17) =      8.84500  eV     1   --> B_1  G_3 D_2   
     e( 18 - 18) =      8.91056  eV     1   --> A_1  G_1 D_1   
     e( 19 - 20) =      9.81765  eV     2   --> E    G_5 D_5   
     e( 21 - 21) =     11.79241  eV     1   --> B_2  G_4 D_2'  
     e( 22 - 23) =     12.67892  eV     2   --> E    G_5 D_5   
     e( 24 - 24) =     14.00742  eV     1   --> B_1  G_3 D_2   
     e( 25 - 25) =     15.19686  eV     1   --> A_1  G_1 D_1   
     e( 26 - 26) =     16.99724  eV     1   -->   ?

 **************************************************************************

 **************************************************************************

                    xk=(   0.00000,   0.25000,   0.00000  )

     Band symmetry, C_4v (4mm)  point group:

     e(  1 -  1) =    -53.12127  eV     1   --> A_1  G_1 D_1   
     e(  2 -  2) =    -26.97516  eV     1   --> A_1  G_1 D_1   
     e(  3 -  4) =    -26.95589  eV     2   --> E    G_5 D_5   
     e(  5 -  5) =    -21.86334  eV     1   --> A_1  G_1 D_1   
     e(  6 -  6) =     -7.30627  eV     1   --> A_1  G_1 D_1   
     e(  7 -  7) =     -6.09478  eV     1   --> A_1  G_1 D_1   
     e(  8 -  8) =     -6.07140  eV     1   --> B_1  G_3 D_2   
     e(  9 - 10) =     -3.86187  eV     2   --> E    G_5 D_5   
     e( 11 - 11) =     -3.56764  eV     1   --> A_1  G_1 D_1   
     e( 12 - 12) =      6.58832  eV     1   --> A_1  G_1 D_1   
     e( 13 - 14) =      7.30661  eV     2   --> E    G_5 D_5   
     e( 15 - 16) =      8.52519  eV     2   --> E    G_5 D_5   
     e( 17 - 17) =      8.75059  eV     1   --> A_1  G_1 D_1   
     e( 18 - 18) =      8.77995  eV     1   --> B_1  G_3 D_2   
     e( 19 - 20) =      9.78807  eV     2   --> E    G_5 D_5   
     e( 21 - 21) =     11.80215  eV     1   --> B_2  G_4 D_2'  
     e( 22 - 23) =     12.82036  eV     2   --> E    G_5 D_5   
     e( 24 - 24) =     14.00859  eV     1   --> B_1  G_3 D_2   
     e( 25 - 25) =     15.36617  eV     1   --> A_1  G_1 D_1   
     e( 26 - 26) =     17.16212  eV     1   -->   ?

 **************************************************************************

 **************************************************************************

                    xk=(   0.00000,   0.27500,   0.00000  )

     Band symmetry, C_4v (4mm)  point group:

     e(  1 -  1) =    -53.12121  eV     1   --> A_1  G_1 D_1   
     e(  2 -  2) =    -26.97804  eV     1   --> A_1  G_1 D_1   
     e(  3 -  4) =    -26.95575  eV     2   --> E    G_5 D_5   
     e(  5 -  5) =    -21.86077  eV     1   --> A_1  G_1 D_1   
     e(  6 -  6) =     -7.32135  eV     1   --> A_1  G_1 D_1   
     e(  7 -  7) =     -6.07817  eV     1   --> A_1  G_1 D_1   
     e(  8 -  8) =     -6.06792  eV     1   --> B_1  G_3 D_2   
     e(  9 - 10) =     -3.85690  eV     2   --> E    G_5 D_5   
     e( 11 - 11) =     -3.52281  eV     1   --> A_1  G_1 D_1   
     e( 12 - 12) =      6.47099  eV     1   --> A_1  G_1 D_1   
     e( 13 - 14) =      7.30410  eV     2   --> E    G_5 D_5   
     e( 15 - 16) =      8.43250  eV     2   --> E    G_5 D_5   
     e( 17 - 17) =      8.60118  eV     1   --> A_1  G_1 D_1   
     e( 18 - 18) =      8.71652  eV     1   --> B_1  G_3 D_2   
     e( 19 - 20) =      9.76054  eV     2   --> E    G_5 D_5   
     e( 21 - 21) =     11.81193  eV     1   --> B_2  G_4 D_2'  
     e( 22 - 23) =     12.95652  eV     2   --> E    G_5 D_5   
     e( 24 - 24) =     14.00966  eV     1   --> B_1  G_3 D_2   
     e( 25 - 25) =     15.52591  eV     1   --> A_1  G_1 D_1   
     e( 26 - 26) =     17.30798  eV     1   -->   ?

 **************************************************************************

 **************************************************************************

                    xk=(   0.00000,   0.30000,   0.00000  )

     Band symmetry, C_4v (4mm)  point group:

     e(  1 -  1) =    -53.12116  eV     1   --> A_1  G_1 D_1   
     e(  2 -  2) =    -26.98085  eV     1   --> A_1  G_1 D_1   
     e(  3 -  4) =    -26.95565  eV     2   --> E    G_5 D_5   
     e(  5 -  5) =    -21.85828  eV     1   --> A_1  G_1 D_1   
     e(  6 -  6) =     -7.33786  eV     1   --> A_1  G_1 D_1   
     e(  7 -  7) =     -6.06452  eV     1   --> B_1  G_3 D_2   
     e(  8 -  8) =     -6.05845  eV     1   --> A_1  G_1 D_1   
     e(  9 - 10) =     -3.85205  eV     2   --> E    G_5 D_5   
     e( 11 - 11) =     -3.48037  eV     1   --> A_1  G_1 D_1   
     e( 12 - 12) =      6.35632  eV     1   --> A_1  G_1 D_1   
     e( 13 - 14) =      7.30227  eV     2   --> E    G_5 D_5   
     e( 15 - 16) =      8.34499  eV     2   --> E    G_5 D_5   
     e( 17 - 17) =      8.46424  eV     1   --> A_1  G_1 D_1   
     e( 18 - 18) =      8.65610  eV     1   --> B_1  G_3 D_2   
     e( 19 - 20) =      9.73525  eV     2   --> E    G_5 D_5   
     e( 21 - 21) =     11.82149  eV     1   --> B_2  G_4 D_2'  
     e( 22 - 23) =     13.08505  eV     2   --> E    G_5 D_5   
     e( 24 - 24) =     14.01064  eV     1   --> B_1  G_3 D_2   
     e( 25 - 25) =     15.67384  eV     1   --> A_1  G_1 D_1   
     e( 26 - 26) =     17.50553  eV     1   -->   ?

 **************************************************************************

 **************************************************************************

                    xk=(   0.00000,   0.32500,   0.00000  )

     Band symmetry, C_4v (4mm)  point group:

     e(  1 -  1) =    -53.12110  eV     1   --> A_1  G_1 D_1   
     e(  2 -  2) =    -26.98351  eV     1   --> A_1  G_1 D_1   
     e(  3 -  4) =    -26.95551  eV     2   --> E    G_5 D_5   
     e(  5 -  5) =    -21.85588  eV     1   --> A_1  G_1 D_1   
     e(  6 -  6) =     -7.35497  eV     1   --> A_1  G_1 D_1   
     e(  7 -  7) =     -6.06126  eV     1   --> B_1  G_3 D_2   
     e(  8 -  8) =     -6.03668  eV     1   --> A_1  G_1 D_1   
     e(  9 - 10) =     -3.84739  eV     2   --> E    G_5 D_5   
     e( 11 - 11) =     -3.44116  eV     1   --> A_1  G_1 D_1   
     e( 12 - 12) =      6.24722  eV     1   --> A_1  G_1 D_1   
     e( 13 - 14) =      7.30125  eV     2   --> E    G_5 D_5   
     e( 15 - 16) =      8.26410  eV     2   --> E    G_5 D_5   
     e( 17 - 17) =      8.34119  eV     1   --> A_1  G_1 D_1   
     e( 18 - 18) =      8.59995  eV     1   --> B_1  G_3 D_2   
     e( 19 - 20) =      9.71240  eV     2   --> E    G_5 D_5   
     e( 21 - 21) =     11.83069  eV     1   --> B_2  G_4 D_2'  
     e( 22 - 23) =     13.20394  eV     2   --> E    G_5 D_5   
     e( 24 - 24) =     14.01159  eV     1   --> B_1  G_3 D_2   
     e( 25 - 25) =     15.80811  eV     1   --> A_1  G_1 D_1   
     e( 26 - 26) =     17.67506  eV     1   -->   ?

 **************************************************************************

 **************************************************************************

                    xk=(   0.00000,   0.35000,   0.00000  )

     Band symmetry, C_4v (4mm)  point group:

     e(  1 -  1) =    -53.12105  eV     1   --> A_1  G_1 D_1   
     e(  2 -  2) =    -26.98596  eV     1   --> A_1  G_1 D_1   
     e(  3 -  4) =    -26.95540  eV     2   --> E    G_5 D_5   
     e(  5 -  5) =    -21.85369  eV     1   --> A_1  G_1 D_1   
     e(  6 -  6) =     -7.37185  eV     1   --> A_1  G_1 D_1   
     e(  7 -  7) =     -6.05828  eV     1   --> B_1  G_3 D_2   
     e(  8 -  8) =     -6.01421  eV     1   --> A_1  G_1 D_1   
     e(  9 - 10) =     -3.84311  eV     2   --> E    G_5 D_5   
     e( 11 - 11) =     -3.40589  eV     1   --> A_1  G_1 D_1   
     e( 12 - 12) =      6.14641  eV     1   --> A_1  G_1 D_1   
     e( 13 - 14) =      7.30102  eV     2   --> E    G_5 D_5   
     e( 15 - 16) =      8.19099  eV     2   --> E    G_5 D_5   
     e( 17 - 17) =      8.23304  eV     1   --> A_1  G_1 D_1   
     e( 18 - 18) =      8.54915  eV     1   --> B_1  G_3 D_2   
     e( 19 - 20) =      9.69216  eV     2   --> E    G_5 D_5   
     e( 21 - 21) =     11.83916  eV     1   --> B_2  G_4 D_2'  
     e( 22 - 23) =     13.31120  eV     2   --> E    G_5 D_5   
     e( 24 - 24) =     14.01235  eV     1   --> B_1  G_3 D_2   
     e( 25 - 25) =     15.92717  eV     1   --> A_1  G_1 D_1   
     e( 26 - 26) =     17.83619  eV     1   -->   ?

 **************************************************************************

 **************************************************************************

                    xk=(   0.00000,   0.37500,   0.00000  )

     Band symmetry, C_4v (4mm)  point group:

     e(  1 -  1) =    -53.12101  eV     1   --> A_1  G_1 D_1   
     e(  2 -  2) =    -26.98815  eV     1   --> A_1  G_1 D_1   
     e(  3 -  4) =    -26.95529  eV     2   --> E    G_5 D_5   
     e(  5 -  5) =    -21.85173  eV     1   --> A_1  G_1 D_1   
     e(  6 -  6) =     -7.38766  eV     1   --> A_1  G_1 D_1   
     e(  7 -  7) =     -6.05561  eV     1   --> B_1  G_3 D_2   
     e(  8 -  8) =     -5.99236  eV     1   --> A_1  G_1 D_1   
     e(  9 - 10) =     -3.83929  eV     2   --> E    G_5 D_5   
     e( 11 - 11) =     -3.37515  eV     1   --> A_1  G_1 D_1   
     e( 12 - 12) =      6.05646  eV     1   --> A_1  G_1 D_1   
     e( 13 - 14) =      7.30156  eV     2   --> E    G_5 D_5   
     e( 15 - 16) =      8.12675  eV     2   --> E    G_5 D_5   
     e( 17 - 17) =      8.14055  eV     1   --> A_1  G_1 D_1   
     e( 18 - 18) =      8.50464  eV     1   --> B_1  G_3 D_2   
     e( 19 - 20) =      9.67473  eV     2   --> E    G_5 D_5   
     e( 21 - 21) =     11.84676  eV     1   --> B_2  G_4 D_2'  
     e( 22 - 23) =     13.40515  eV     2   --> E    G_5 D_5   
     e( 24 - 24) =     14.01303  eV     1   --> B_1  G_3 D_2   
     e( 25 - 25) =     16.02987  eV     1   --> A_1  G_1 D_1   
     e( 26 - 26) =     17.98399  eV     1   -->   ?

 **************************************************************************

 **************************************************************************

                    xk=(   0.00000,   0.40000,   0.00000  )

     Band symmetry, C_4v (4mm)  point group:

     e(  1 -  1) =    -53.12096  eV     1   --> A_1  G_1 D_1   
     e(  2 -  2) =    -26.99001  eV     1   --> A_1  G_1 D_1   
     e(  3 -  4) =    -26.95519  eV     2   --> E    G_5 D_5   
     e(  5 -  5) =    -21.85003  eV     1   --> A_1  G_1 D_1   
     e(  6 -  6) =     -7.40169  eV     1   --> A_1  G_1 D_1   
     e(  7 -  7) =     -6.05332  eV     1   --> B_1  G_3 D_2   
     e(  8 -  8) =     -5.97244  eV     1   --> A_1  G_1 D_1   
     e(  9 - 10) =     -3.83599  eV     2   --> E    G_5 D_5   
     e( 11 - 11) =     -3.34940  eV     1   --> A_1  G_1 D_1   
     e( 12 - 12) =      5.97962  eV     1   --> A_1  G_1 D_1   
     e( 13 - 14) =      7.30269  eV     2   --> E    G_5 D_5   
     e( 15 - 15) =      8.06426  eV     1   --> A_1  G_1 D_1   
     e( 16 - 17) =      8.07239  eV     2   --> E    G_5 D_5   
     e( 18 - 18) =      8.46717  eV     1   --> B_1  G_3 D_2   
     e( 19 - 20) =      9.66026  eV     2   --> E    G_5 D_5   
     e( 21 - 21) =     11.85335  eV     1   --> B_2  G_4 D_2'  
     e( 22 - 23) =     13.48427  eV     2   --> E    G_5 D_5   
     e( 24 - 24) =     14.01360  eV     1   --> B_1  G_3 D_2   
     e( 25 - 25) =     16.11519  eV     1   --> A_1  G_1 D_1   
     e( 26 - 26) =     17.95497  eV     1   -->   ?

 **************************************************************************

 **************************************************************************

                    xk=(   0.00000,   0.42500,   0.00000  )

     Band symmetry, C_4v (4mm)  point group:

     e(  1 -  1) =    -53.12093  eV     1   --> A_1  G_1 D_1   
     e(  2 -  2) =    -26.99152  eV     1   --> A_1  G_1 D_1   
     e(  3 -  4) =    -26.95512  eV     2   --> E    G_5 D_5   
     e(  5 -  5) =    -21.84869  eV     1   --> A_1  G_1 D_1   
     e(  6 -  6) =     -7.41327  eV     1   --> A_1  G_1 D_1   
     e(  7 -  7) =     -6.05148  eV     1   --> B_1  G_3 D_2   
     e(  8 -  8) =     -5.95560  eV     1   --> A_1  G_1 D_1   
     e(  9 - 10) =     -3.83336  eV     2   --> E    G_5 D_5   
     e( 11 - 11) =     -3.32906  eV     1   --> A_1  G_1 D_1   
     e( 12 - 12) =      5.91777  eV     1   --> A_1  G_1 D_1   
     e( 13 - 14) =      7.30413  eV     2   --> E    G_5 D_5   
     e( 15 - 15) =      8.00456  eV     1   --> A_1  G_1 D_1   
     e( 16 - 17) =      8.02885  eV     2   --> E    G_5 D_5   
     e( 18 - 18) =      8.43740  eV     1   --> B_1  G_3 D_2   
     e( 19 - 20) =      9.64886  eV     2   --> E    G_5 D_5   
     e( 21 - 21) =     11.85860  eV     1   --> B_2  G_4 D_2'  
     e( 22 - 23) =     13.54719  eV     2   --> E    G_5 D_5   
     e( 24 - 24) =     14.01405  eV     1   --> B_1  G_3 D_2   
     e( 25 - 25) =     16.18232  eV     1   --> A_1  G_1 D_1   
     e( 26 - 26) =     18.21961  eV     1   -->   ?

 **************************************************************************

 **************************************************************************

                    xk=(   0.00000,   0.45000,   0.00000  )

     Band symmetry, C_4v (4mm)  point group:

     e(  1 -  1) =    -53.12091  eV     1   --> A_1  G_1 D_1   
     e(  2 -  2) =    -26.99262  eV     1   --> A_1  G_1 D_1   
     e(  3 -  4) =    -26.95507  eV     2   --> E    G_5 D_5   
     e(  5 -  5) =    -21.84770  eV     1   --> A_1  G_1 D_1   
     e(  6 -  6) =     -7.42191  eV     1   --> A_1  G_1 D_1   
     e(  7 -  7) =     -6.05013  eV     1   --> B_1  G_3 D_2   
     e(  8 -  8) =     -5.94283  eV     1   --> A_1  G_1 D_1   
     e(  9 - 10) =     -3.83142  eV     2   --> E    G_5 D_5   
     e( 11 - 11) =     -3.31434  eV     1   --> A_1  G_1 D_1   
     e( 12 - 12) =      5.87248  eV     1   --> A_1  G_1 D_1   
     e( 13 - 14) =      7.30555  eV     2   --> E    G_5 D_5   
     e( 15 - 15) =      7.96172  eV     1   --> A_1  G_1 D_1   
     e( 16 - 17) =      7.99700  eV     2   --> E    G_5 D_5   
     e( 18 - 18) =      8.41579  eV     1   --> B_1  G_3 D_2   
     e( 19 - 20) =      9.64065  eV     2   --> E    G_5 D_5   
     e( 21 - 21) =     11.86246  eV     1   --> B_2  G_4 D_2'  
     e( 22 - 23) =     13.59293  eV     2   --> E    G_5 D_5   
     e( 24 - 24) =     14.01437  eV     1   --> B_1  G_3 D_2   
     e( 25 - 25) =     16.23068  eV     1   --> A_1  G_1 D_1   
     e( 26 - 26) =     18.29871  eV     1   -->   ?

 **************************************************************************

 **************************************************************************

                    xk=(   0.00000,   0.47500,   0.00000  )

     Band symmetry, C_4v (4mm)  point group:

     e(  1 -  1) =    -53.12088  eV     1   --> A_1  G_1 D_1   
     e(  2 -  2) =    -26.99328  eV     1   --> A_1  G_1 D_1   
     e(  3 -  4) =    -26.95503  eV     2   --> E    G_5 D_5   
     e(  5 -  5) =    -21.84709  eV     1   --> A_1  G_1 D_1   
     e(  6 -  6) =     -7.42726  eV     1   --> A_1  G_1 D_1   
     e(  7 -  7) =     -6.04928  eV     1   --> B_1  G_3 D_2   
     e(  8 -  8) =     -5.93487  eV     1   --> A_1  G_1 D_1   
     e(  9 - 10) =     -3.83023  eV     2   --> E    G_5 D_5   
     e( 11 - 11) =     -3.30543  eV     1   --> A_1  G_1 D_1   
     e( 12 - 12) =      5.84488  eV     1   --> A_1  G_1 D_1   
     e( 13 - 14) =      7.30659  eV     2   --> E    G_5 D_5   
     e( 15 - 15) =      7.93594  eV     1   --> A_1  G_1 D_1   
     e( 16 - 17) =      7.97757  eV     2   --> E    G_5 D_5   
     e( 18 - 18) =      8.40270  eV     1   --> B_1  G_3 D_2   
     e( 19 - 20) =      9.63569  eV     2   --> E    G_5 D_5   
     e( 21 - 21) =     11.86483  eV     1   --> B_2  G_4 D_2'  
     e( 22 - 23) =     13.62071  eV     2   --> E    G_5 D_5   
     e( 24 - 24) =     14.01456  eV     1   --> B_1  G_3 D_2   
     e( 25 - 25) =     16.25987  eV     1   --> A_1  G_1 D_1   
     e( 26 - 26) =     18.34740  eV     1   -->   ?

 **************************************************************************

 **************************************************************************

                    xk=(   0.00000,   0.50000,   0.00000  )

     point group D_4h(4/mmm)
     there are 10 classes
     the character table:

       E     2C4   C2    2C2'  2C2'' i     2S4   s_h   2s_v  2s_d 
A_1g   1.00  1.00  1.00  1.00  1.00  1.00  1.00  1.00  1.00  1.00
A_2g   1.00  1.00  1.00 -1.00 -1.00  1.00  1.00  1.00 -1.00 -1.00
B_1g   1.00 -1.00  1.00  1.00 -1.00  1.00 -1.00  1.00  1.00 -1.00
B_2g   1.00 -1.00  1.00 -1.00  1.00  1.00 -1.00  1.00 -1.00  1.00
E_g    2.00  0.00 -2.00  0.00  0.00  2.00  0.00 -2.00  0.00  0.00
A_1u   1.00  1.00  1.00  1.00  1.00 -1.00 -1.00 -1.00 -1.00 -1.00
A_2u   1.00  1.00  1.00 -1.00 -1.00 -1.00 -1.00 -1.00  1.00  1.00
B_1u   1.00 -1.00  1.00  1.00 -1.00 -1.00  1.00 -1.00 -1.00  1.00
B_2u   1.00 -1.00  1.00 -1.00  1.00 -1.00  1.00 -1.00  1.00 -1.00
E_u    2.00  0.00 -2.00  0.00  0.00 -2.00  0.00  2.00  0.00  0.00

     the symmetry operations in each class and the name of the first element:

     E        1
                                                                 
     2C4      7    8
                                                                 
     C2       3
                                                                 
     2C2'     2    4
                                                                 
     2C2''    5    6
                                                                 
     i        9
                                                                 
     2S4     15   16
                                                                 
     s_h     11
                                                                 
     2s_v    10   12
                                                                 
     2s_d    13   14
                                                                 

     Band symmetry, D_4h(4/mmm) point group:

     e(  1 -  1) =    -53.12088  eV     1   --> A_1g X_1  M_1  
     e(  2 -  2) =    -26.99350  eV     1   --> A_2u X_4' M_4' 
     e(  3 -  4) =    -26.95502  eV     2   --> E_u  X_5' M_5' 
     e(  5 -  5) =    -21.84689  eV     1   --> A_2u X_4' M_4' 
     e(  6 -  6) =     -7.42906  eV     1   --> A_1g X_1  M_1  
     e(  7 -  7) =     -6.04901  eV     1   --> B_1g X_2  M_2  
     e(  8 -  8) =     -5.93216  eV     1   --> A_2u X_4' M_4' 
     e(  9 - 10) =     -3.82983  eV     2   --> E_g  X_5  M_5  
     e( 11 - 11) =     -3.30245  eV     1   --> A_1g X_1  M_1  
     e( 12 - 12) =      5.83560  eV     1   --> A_1g X_1  M_1  
     e( 13 - 14) =      7.30697  eV     2   --> E_u  X_5' M_5' 
     e( 15 - 15) =      7.92734  eV     1   --> A_2u X_4' M_4' 
     e( 16 - 17) =      7.97103  eV     2   --> E_g  X_5  M_5  
     e( 18 - 18) =      8.39833  eV     1   --> B_2u X_3' M_3' 
     e( 19 - 20) =      9.63404  eV     2   --> E_u  X_5' M_5' 
     e( 21 - 21) =     11.86562  eV     1   --> B_2g X_3  M_3  
     e( 22 - 23) =     13.63001  eV     2   --> E_g  X_5  M_5  
     e( 24 - 24) =     14.01463  eV     1   --> B_1g X_2  M_2  
     e( 25 - 25) =     16.26963  eV     1   --> A_1g X_1  M_1  
     e( 26 - 26) =     18.36383  eV     1   -->   ?

 **************************************************************************

 **************************************************************************

                    xk=(   0.02500,   0.50000,   0.00000  )

     point group C_2v (mm2) 
     there are  4 classes
     the character table:

       E     C2    s_v   s_v' 
A_1    1.00  1.00  1.00  1.00
A_2    1.00  1.00 -1.00 -1.00
B_1    1.00 -1.00  1.00 -1.00
B_2    1.00 -1.00 -1.00  1.00

     the symmetry operations in each class and the name of the first element:

     E        1
                                                                 
     C2       2
                                                                 
     s_v      4
                                                                 
     s_v'     3
                                                                 

     Band symmetry, C_2v (mm2)  point group:

     e(  1 -  1) =    -53.12088  eV     1   --> A_1  D_1  S_1  
     e(  2 -  2) =    -26.99348  eV     1   --> B_2  D_4  S_4  
     e(  3 -  3) =    -26.95524  eV     1   --> A_1  D_1  S_1  
     e(  4 -  4) =    -26.95501  eV     1   --> B_1  D_3  S_3  
     e(  5 -  5) =    -21.84675  eV     1   --> B_2  D_4  S_4  
     e(  6 -  6) =     -7.42550  eV     1   --> A_1  D_1  S_1  
     e(  7 -  7) =     -6.04860  eV     1   --> A_1  D_1  S_1  
     e(  8 -  8) =     -5.93502  eV     1   --> B_2  D_4  S_4  
     e(  9 -  9) =     -3.82939  eV     1   --> A_2  D_2  S_2  
     e( 10 - 10) =     -3.82774  eV     1   --> B_2  D_4  S_4  
     e( 11 - 11) =     -3.30432  eV     1   --> A_1  D_1  S_1  
     e( 12 - 12) =      5.83503  eV     1   --> A_1  D_1  S_1  
     e( 13 - 13) =      7.30240  eV     1   --> A_1  D_1  S_1  
     e( 14 - 14) =      7.30752  eV     1   --> B_1  D_3  S_3  
     e( 15 - 15) =      7.78780  eV     1   --> B_2  D_4  S_4  
     e( 16 - 16) =      7.96755  eV     1   --> A_2  D_2  S_2  
     e( 17 - 17) =      8.07787  eV     1   --> B_2  D_4  S_4  
     e( 18 - 18) =      8.43585  eV     1   --> B_2  D_4  S_4  
     e( 19 - 19) =      9.61777  eV     1   --> A_1  D_1  S_1  
     e( 20 - 20) =      9.62187  eV     1   --> B_1  D_3  S_3  
     e( 21 - 21) =     11.88096  eV     1   --> B_1  D_3  S_3  
     e( 22 - 23) =     13.62988  eV     2   --> A_2  D_2  S_2  
     e( 22 - 23) =     13.62988  eV     2   --> B_2  D_4  S_4  
     e( 24 - 24) =     14.03122  eV     1   --> A_1  D_1  S_1  
     e( 25 - 25) =     16.27811  eV     1   --> A_1  D_1  S_1  
     e( 26 - 26) =     18.37391  eV     1   --> B_2  D_4  S_4  

 **************************************************************************

 **************************************************************************

                    xk=(   0.05000,   0.50000,   0.00000  )

     Band symmetry, C_2v (mm2)  point group:

     e(  1 -  1) =    -53.12087  eV     1   --> A_1  D_1  S_1  
     e(  2 -  2) =    -26.99344  eV     1   --> B_2  D_4  S_4  
     e(  3 -  3) =    -26.95592  eV     1   --> A_1  D_1  S_1  
     e(  4 -  4) =    -26.95499  eV     1   --> B_1  D_3  S_3  
     e(  5 -  5) =    -21.84634  eV     1   --> B_2  D_4  S_4  
     e(  6 -  6) =     -7.41489  eV     1   --> A_1  D_1  S_1  
     e(  7 -  7) =     -6.04748  eV     1   --> A_1  D_1  S_1  
     e(  8 -  8) =     -5.94351  eV     1   --> B_2  D_4  S_4  
     e(  9 -  9) =     -3.82810  eV     1   --> A_2  D_2  S_2  
     e( 10 - 10) =     -3.82157  eV     1   --> B_2  D_4  S_4  
     e( 11 - 11) =     -3.30986  eV     1   --> A_1  D_1  S_1  
     e( 12 - 12) =      5.83331  eV     1   --> A_1  D_1  S_1  
     e( 13 - 13) =      7.28829  eV     1   --> A_1  D_1  S_1  
     e( 14 - 14) =      7.30915  eV     1   --> B_1  D_3  S_3  
     e( 15 - 15) =      7.61513  eV     1   --> B_2  D_4  S_4  
     e( 16 - 16) =      7.95720  eV     1   --> A_2  D_2  S_2  
     e( 17 - 17) =      8.15750  eV     1   --> B_2  D_4  S_4  
     e( 18 - 18) =      8.54315  eV     1   --> B_2  D_4  S_4  
     e( 19 - 19) =      9.57100  eV     1   --> A_1  D_1  S_1  
     e( 20 - 20) =      9.58653  eV     1   --> B_1  D_3  S_3  
     e( 21 - 21) =     11.92565  eV     1   --> B_1  D_3  S_3  
     e( 22 - 22) =     13.62946  eV     1   --> A_2  D_2  S_2  
     e( 23 - 23) =     13.62985  eV     1   --> B_2  D_4  S_4  
     e( 24 - 24) =     14.07897  eV     1   --> A_1  D_1  S_1  
     e( 25 - 25) =     16.30374  eV     1   --> A_1  D_1  S_1  
     e( 26 - 26) =     18.17375  eV     1   --> B_2  D_4  S_4  

 **************************************************************************

 **************************************************************************

                    xk=(   0.07500,   0.50000,   0.00000  )

     Band symmetry, C_2v (mm2)  point group:

     e(  1 -  1) =    -53.12085  eV     1   --> A_1  D_1  S_1  
     e(  2 -  2) =    -26.99336  eV     1   --> B_2  D_4  S_4  
     e(  3 -  3) =    -26.95701  eV     1   --> A_1  D_1  S_1  
     e(  4 -  4) =    -26.95496  eV     1   --> B_1  D_3  S_3  
     e(  5 -  5) =    -21.84566  eV     1   --> B_2  D_4  S_4  
     e(  6 -  6) =     -7.39731  eV     1   --> A_1  D_1  S_1  
     e(  7 -  7) =     -6.04579  eV     1   --> A_1  D_1  S_1  
     e(  8 -  8) =     -5.95731  eV     1   --> B_2  D_4  S_4  
     e(  9 -  9) =     -3.82598  eV     1   --> A_2  D_2  S_2  
     e( 10 - 10) =     -3.81150  eV     1   --> B_2  D_4  S_4  
     e( 11 - 11) =     -3.31888  eV     1   --> A_1  D_1  S_1  
     e( 12 - 12) =      5.83047  eV     1   --> A_1  D_1  S_1  
     e( 13 - 13) =      7.26367  eV     1   --> A_1  D_1  S_1  
     e( 14 - 14) =      7.31187  eV     1   --> B_1  D_3  S_3  
     e( 15 - 15) =      7.43805  eV     1   --> B_2  D_4  S_4  
     e( 16 - 16) =      7.94029  eV     1   --> A_2  D_2  S_2  
     e( 17 - 17) =      8.20761  eV     1   --> B_2  D_4  S_4  
     e( 18 - 18) =      8.69329  eV     1   --> B_2  D_4  S_4  
     e( 19 - 19) =      9.49935  eV     1   --> A_1  D_1  S_1  
     e( 20 - 20) =      9.53117  eV     1   --> B_1  D_3  S_3  
     e( 21 - 21) =     11.99639  eV     1   --> B_1  D_3  S_3  
     e( 22 - 22) =     13.62879  eV     1   --> A_2  D_2  S_2  
     e( 23 - 23) =     13.63020  eV     1   --> B_2  D_4  S_4  
     e( 24 - 24) =     14.15234  eV     1   --> A_1  D_1  S_1  
     e( 25 - 25) =     16.34715  eV     1   --> A_1  D_1  S_1  
     e( 26 - 26) =     18.20286  eV     1   --> B_2  D_4  S_4  

 **************************************************************************

 **************************************************************************

                    xk=(   0.10000,   0.50000,   0.00000  )

     Band symmetry, C_2v (mm2)  point group:

     e(  1 -  1) =    -53.12083  eV     1   --> A_1  D_1  S_1  
     e(  2 -  2) =    -26.99325  eV     1   --> B_2  D_4  S_4  
     e(  3 -  3) =    -26.95848  eV     1   --> A_1  D_1  S_1  
     e(  4 -  4) =    -26.95490  eV     1   --> B_1  D_3  S_3  
     e(  5 -  5) =    -21.84472  eV     1   --> B_2  D_4  S_4  
     e(  6 -  6) =     -7.37296  eV     1   --> A_1  D_1  S_1  
     e(  7 -  7) =     -6.04380  eV     1   --> A_1  D_1  S_1  
     e(  8 -  8) =     -5.97594  eV     1   --> B_2  D_4  S_4  
     e(  9 -  9) =     -3.82306  eV     1   --> A_2  D_2  S_2  
     e( 10 - 10) =     -3.79790  eV     1   --> B_2  D_4  S_4  
     e( 11 - 11) =     -3.33103  eV     1   --> A_1  D_1  S_1  
     e( 12 - 12) =      5.82656  eV     1   --> A_1  D_1  S_1  
     e( 13 - 13) =      7.22699  eV     1   --> A_1  D_1  S_1  
     e( 14 - 14) =      7.26167  eV     1   --> B_2  D_4  S_4  
     e( 15 - 15) =      7.31567  eV     1   --> B_1  D_3  S_3  
     e( 16 - 16) =      7.91732  eV     1   --> A_2  D_2  S_2  
     e( 17 - 17) =      8.24877  eV     1   --> B_2  D_4  S_4  
     e( 18 - 18) =      8.85967  eV     1   --> B_2  D_4  S_4  
     e( 19 - 19) =      9.41084  eV     1   --> A_1  D_1  S_1  
     e( 20 - 20) =      9.46003  eV     1   --> B_1  D_3  S_3  
     e( 21 - 21) =     12.08868  eV     1   --> B_1  D_3  S_3  
     e( 22 - 22) =     13.62793  eV     1   --> A_2  D_2  S_2  
     e( 23 - 23) =     13.63175  eV     1   --> B_2  D_4  S_4  
     e( 24 - 24) =     14.24355  eV     1   --> A_1  D_1  S_1  
     e( 25 - 25) =     16.40913  eV     1   --> A_1  D_1  S_1  
     e( 26 - 26) =     18.24225  eV     1   --> B_2  D_4  S_4  

 **************************************************************************

 **************************************************************************

                    xk=(   0.12500,   0.50000,   0.00000  )

     Band symmetry, C_2v (mm2)  point group:

     e(  1 -  1) =    -53.12078  eV     1   --> A_1  D_1  S_1  
     e(  2 -  2) =    -26.99309  eV     1   --> B_2  D_4  S_4  
     e(  3 -  3) =    -26.96026  eV     1   --> A_1  D_1  S_1  
     e(  4 -  4) =    -26.95481  eV     1   --> B_1  D_3  S_3  
     e(  5 -  5) =    -21.84353  eV     1   --> B_2  D_4  S_4  
     e(  6 -  6) =     -7.34209  eV     1   --> A_1  D_1  S_1  
     e(  7 -  7) =     -6.04196  eV     1   --> A_1  D_1  S_1  
     e(  8 -  8) =     -5.99879  eV     1   --> B_2  D_4  S_4  
     e(  9 -  9) =     -3.81941  eV     1   --> A_2  D_2  S_2  
     e( 10 - 10) =     -3.78123  eV     1   --> B_2  D_4  S_4  
     e( 11 - 11) =     -3.34586  eV     1   --> A_1  D_1  S_1  
     e( 12 - 12) =      5.82162  eV     1   --> A_1  D_1  S_1  
     e( 13 - 13) =      7.08871  eV     1   --> B_2  D_4  S_4  
     e( 14 - 14) =      7.17648  eV     1   --> A_1  D_1  S_1  
     e( 15 - 15) =      7.32054  eV     1   --> B_1  D_3  S_3  
     e( 16 - 16) =      7.88897  eV     1   --> A_2  D_2  S_2  
     e( 17 - 17) =      8.29000  eV     1   --> B_2  D_4  S_4  
     e( 18 - 18) =      9.02932  eV     1   --> B_2  D_4  S_4  
     e( 19 - 19) =      9.31441  eV     1   --> A_1  D_1  S_1  
     e( 20 - 20) =      9.37748  eV     1   --> B_1  D_3  S_3  
     e( 21 - 21) =     12.19764  eV     1   --> B_1  D_3  S_3  
     e( 22 - 22) =     13.62694  eV     1   --> A_2  D_2  S_2  
     e( 23 - 23) =     13.63537  eV     1   --> B_2  D_4  S_4  
     e( 24 - 24) =     14.34412  eV     1   --> A_1  D_1  S_1  
     e( 25 - 25) =     16.49023  eV     1   --> A_1  D_1  S_1  
     e( 26 - 26) =     18.29110  eV     1   --> B_2  D_4  S_4  

 **************************************************************************

 **************************************************************************

                    xk=(   0.15000,   0.50000,   0.00000  )

     Band symmetry, C_2v (mm2)  point group:

     e(  1 -  1) =    -53.12074  eV     1   --> A_1  D_1  S_1  
     e(  2 -  2) =    -26.99292  eV     1   --> B_2  D_4  S_4  
     e(  3 -  3) =    -26.96239  eV     1   --> A_1  D_1  S_1  
     e(  4 -  4) =    -26.95471  eV     1   --> B_1  D_3  S_3  
     e(  5 -  5) =    -21.84216  eV     1   --> B_2  D_4  S_4  
     e(  6 -  6) =     -7.30503  eV     1   --> A_1  D_1  S_1  
     e(  7 -  7) =     -6.04079  eV     1   --> A_1  D_1  S_1  
     e(  8 -  8) =     -6.02514  eV     1   --> B_2  D_4  S_4  
     e(  9 -  9) =     -3.81514  eV     1   --> A_2  D_2  S_2  
     e( 10 - 10) =     -3.76209  eV     1   --> B_2  D_4  S_4  
     e( 11 - 11) =     -3.36286  eV     1   --> A_1  D_1  S_1  
     e( 12 - 12) =      5.81561  eV     1   --> A_1  D_1  S_1  
[...]
     e(  5 -  5) =    -21.85382  eV     1   --> A_1  D_1  S_1  
     e(  6 -  6) =     -7.18847  eV     1   --> A_1  D_1  S_1  
     e(  7 -  7) =     -6.21074  eV     1   --> B_1  D_3  S_3  
     e(  8 -  8) =     -6.04041  eV     1   --> A_1  D_1  S_1  
     e(  9 -  9) =     -3.83874  eV     1   --> B_2  D_4  S_4  
     e( 10 - 10) =     -3.73197  eV     1   --> B_1  D_3  S_3  
     e( 11 - 11) =     -3.57688  eV     1   --> A_1  D_1  S_1  
     e( 12 - 12) =      6.44571  eV     1   --> A_1  D_1  S_1  
     e( 13 - 13) =      6.91828  eV     1   --> B_1  D_3  S_3  
     e( 14 - 14) =      7.30842  eV     1   --> B_2  D_4  S_4  
     e( 15 - 15) =      7.50106  eV     1   --> A_1  D_1  S_1  
     e( 16 - 16) =      8.26225  eV     1   --> A_2  D_2  S_2  
     e( 17 - 17) =      8.76948  eV     1   --> A_1  D_1  S_1  
     e( 18 - 18) =      9.11796  eV     1   --> B_1  D_3  S_3  
     e( 19 - 19) =      9.33540  eV     1   --> B_2  D_4  S_4  
     e( 20 - 20) =      9.62332  eV     1   --> B_1  D_3  S_3  
     e( 21 - 21) =     12.62222  eV     1   --> B_2  D_4  S_4  
     e( 22 - 22) =     12.75990  eV     1   --> A_2  D_2  S_2  
     e( 23 - 23) =     12.99455  eV     1   --> A_1  D_1  S_1  
     e( 24 - 24) =     14.57689  eV     1   --> A_1  D_1  S_1  
     e( 25 - 25) =     15.93316  eV     1   --> B_1  D_3  S_3  
     e( 26 - 26) =     17.54947  eV     1   -->   ?

 **************************************************************************

 **************************************************************************

                    xk=(   0.20000,   0.20000,   0.00000  )

     Band symmetry, C_2v (mm2)  point group:

     e(  1 -  1) =    -53.12113  eV     1   --> A_1  D_1  S_1  
     e(  2 -  2) =    -26.96906  eV     1   --> A_1  D_1  S_1  
     e(  3 -  3) =    -26.96847  eV     1   --> B_1  D_3  S_3  
     e(  4 -  4) =    -26.95559  eV     1   --> B_2  D_4  S_4  
     e(  5 -  5) =    -21.85827  eV     1   --> A_1  D_1  S_1  
     e(  6 -  6) =     -7.21270  eV     1   --> A_1  D_1  S_1  
     e(  7 -  7) =     -6.19109  eV     1   --> B_1  D_3  S_3  
     e(  8 -  8) =     -6.05430  eV     1   --> A_1  D_1  S_1  
     e(  9 -  9) =     -3.84891  eV     1   --> B_2  D_4  S_4  
     e( 10 - 10) =     -3.75983  eV     1   --> B_1  D_3  S_3  
     e( 11 - 11) =     -3.61009  eV     1   --> A_1  D_1  S_1  
     e( 12 - 12) =      6.58148  eV     1   --> A_1  D_1  S_1  
     e( 13 - 13) =      7.01821  eV     1   --> B_1  D_3  S_3  
     e( 14 - 14) =      7.30804  eV     1   --> B_2  D_4  S_4  
     e( 15 - 15) =      7.77562  eV     1   --> A_1  D_1  S_1  
     e( 16 - 16) =      8.39985  eV     1   --> A_2  D_2  S_2  
     e( 17 - 17) =      8.88941  eV     1   --> A_1  D_1  S_1  
     e( 18 - 18) =      9.17100  eV     1   --> B_1  D_3  S_3  
     e( 19 - 19) =      9.45456  eV     1   --> B_2  D_4  S_4  
     e( 20 - 20) =      9.58489  eV     1   --> B_1  D_3  S_3  
     e( 21 - 21) =     12.48095  eV     1   --> B_2  D_4  S_4  
     e( 22 - 22) =     12.61463  eV     1   --> A_2  D_2  S_2  
     e( 23 - 23) =     12.83565  eV     1   --> A_1  D_1  S_1  
     e( 24 - 24) =     14.49682  eV     1   --> A_1  D_1  S_1  
     e( 25 - 25) =     15.62517  eV     1   --> B_1  D_3  S_3  
     e( 26 - 26) =     17.33108  eV     1   -->   ?

 **************************************************************************

 **************************************************************************

                    xk=(   0.17500,   0.17500,   0.00000  )

     Band symmetry, C_2v (mm2)  point group:

     e(  1 -  1) =    -53.12123  eV     1   --> A_1  D_1  S_1  
     e(  2 -  2) =    -26.96652  eV     1   --> A_1  D_1  S_1  
     e(  3 -  3) =    -26.96601  eV     1   --> B_1  D_3  S_3  
     e(  4 -  4) =    -26.95581  eV     1   --> B_2  D_4  S_4  
     e(  5 -  5) =    -21.86257  eV     1   --> A_1  D_1  S_1  
     e(  6 -  6) =     -7.23075  eV     1   --> A_1  D_1  S_1  
     e(  7 -  7) =     -6.17182  eV     1   --> B_1  D_3  S_3  
     e(  8 -  8) =     -6.06761  eV     1   --> A_1  D_1  S_1  
     e(  9 -  9) =     -3.85843  eV     1   --> B_2  D_4  S_4  
     e( 10 - 10) =     -3.78677  eV     1   --> B_1  D_3  S_3  
     e( 11 - 11) =     -3.65049  eV     1   --> A_1  D_1  S_1  
     e( 12 - 12) =      6.71873  eV     1   --> A_1  D_1  S_1  
     e( 13 - 13) =      7.10502  eV     1   --> B_1  D_3  S_3  
     e( 14 - 14) =      7.30978  eV     1   --> B_2  D_4  S_4  
     e( 15 - 15) =      8.04562  eV     1   --> A_1  D_1  S_1  
     e( 16 - 16) =      8.54106  eV     1   --> A_2  D_2  S_2  
     e( 17 - 17) =      9.03875  eV     1   --> A_1  D_1  S_1  
     e( 18 - 18) =      9.21309  eV     1   --> B_1  D_3  S_3  
     e( 19 - 19) =      9.57072  eV     1   --> B_2  D_4  S_4  
     e( 20 - 20) =      9.58389  eV     1   --> B_1  D_3  S_3  
     e( 21 - 21) =     12.34215  eV     1   --> B_2  D_4  S_4  
     e( 22 - 22) =     12.46548  eV     1   --> A_2  D_2  S_2  
     e( 23 - 23) =     12.67137  eV     1   --> A_1  D_1  S_1  
     e( 24 - 24) =     14.41329  eV     1   --> A_1  D_1  S_1  
     e( 25 - 25) =     15.32178  eV     1   --> B_1  D_3  S_3  
     e( 26 - 26) =     17.11517  eV     1   -->   ?

 **************************************************************************

 **************************************************************************

                    xk=(   0.15000,   0.15000,   0.00000  )

     Band symmetry, C_2v (mm2)  point group:

     e(  1 -  1) =    -53.12133  eV     1   --> A_1  D_1  S_1  
     e(  2 -  2) =    -26.96416  eV     1   --> A_1  D_1  S_1  
     e(  3 -  3) =    -26.96374  eV     1   --> B_1  D_3  S_3  
     e(  4 -  4) =    -26.95603  eV     1   --> B_2  D_4  S_4  
     e(  5 -  5) =    -21.86664  eV     1   --> A_1  D_1  S_1  
     e(  6 -  6) =     -7.24375  eV     1   --> A_1  D_1  S_1  
     e(  7 -  7) =     -6.15350  eV     1   --> B_1  D_3  S_3  
     e(  8 -  8) =     -6.07877  eV     1   --> A_1  D_1  S_1  
     e(  9 -  9) =     -3.86715  eV     1   --> B_2  D_4  S_4  
     e( 10 - 10) =     -3.81210  eV     1   --> B_1  D_3  S_3  
     e( 11 - 11) =     -3.69607  eV     1   --> A_1  D_1  S_1  
     e( 12 - 12) =      6.85368  eV     1   --> A_1  D_1  S_1  
     e( 13 - 13) =      7.17653  eV     1   --> B_1  D_3  S_3  
     e( 14 - 14) =      7.31303  eV     1   --> B_2  D_4  S_4  
     e( 15 - 15) =      8.30510  eV     1   --> A_1  D_1  S_1  
     e( 16 - 16) =      8.68262  eV     1   --> A_2  D_2  S_2  
     e( 17 - 17) =      9.21179  eV     1   --> A_1  D_1  S_1  
     e( 18 - 18) =      9.23447  eV     1   --> B_1  D_3  S_3  
     e( 19 - 19) =      9.62846  eV     1   --> B_1  D_3  S_3  
     e( 20 - 20) =      9.68185  eV     1   --> B_2  D_4  S_4  
     e( 21 - 21) =     12.20875  eV     1   --> B_2  D_4  S_4  
     e( 22 - 22) =     12.31594  eV     1   --> A_2  D_2  S_2  
     e( 23 - 23) =     12.50310  eV     1   --> A_1  D_1  S_1  
     e( 24 - 24) =     14.32849  eV     1   --> A_1  D_1  S_1  
     e( 25 - 25) =     15.02939  eV     1   --> B_1  D_3  S_3  
     e( 26 - 26) =     16.90492  eV     1   -->   ?

 **************************************************************************

 **************************************************************************

                    xk=(   0.12500,   0.12500,   0.00000  )

     Band symmetry, C_2v (mm2)  point group:

     e(  1 -  1) =    -53.12141  eV     1   --> A_1  D_1  S_1  
     e(  2 -  2) =    -26.96202  eV     1   --> A_1  D_1  S_1  
     e(  3 -  3) =    -26.96171  eV     1   --> B_1  D_3  S_3  
     e(  4 -  4) =    -26.95623  eV     1   --> B_2  D_4  S_4  
     e(  5 -  5) =    -21.87034  eV     1   --> A_1  D_1  S_1  
     e(  6 -  6) =     -7.25282  eV     1   --> A_1  D_1  S_1  
     e(  7 -  7) =     -6.13670  eV     1   --> B_1  D_3  S_3  
     e(  8 -  8) =     -6.08686  eV     1   --> A_1  D_1  S_1  
     e(  9 -  9) =     -3.87482  eV     1   --> B_2  D_4  S_4  
     e( 10 - 10) =     -3.83509  eV     1   --> B_1  D_3  S_3  
     e( 11 - 11) =     -3.74390  eV     1   --> A_1  D_1  S_1  
     e( 12 - 12) =      6.98170  eV     1   --> A_1  D_1  S_1  
     e( 13 - 13) =      7.23224  eV     1   --> B_1  D_3  S_3  
     e( 14 - 14) =      7.31720  eV     1   --> B_2  D_4  S_4  
     e( 15 - 15) =      8.54802  eV     1   --> A_1  D_1  S_1  
     e( 16 - 16) =      8.82038  eV     1   --> A_2  D_2  S_2  
     e( 17 - 17) =      9.23883  eV     1   --> B_1  D_3  S_3  
     e( 18 - 18) =      9.40000  eV     1   --> A_1  D_1  S_1  
     e( 19 - 19) =      9.70988  eV     1   --> B_1  D_3  S_3  
     e( 20 - 20) =      9.78559  eV     1   --> B_2  D_4  S_4  
     e( 21 - 21) =     12.08411  eV     1   --> B_2  D_4  S_4  
     e( 22 - 22) =     12.17055  eV     1   --> A_2  D_2  S_2  
     e( 23 - 23) =     12.33308  eV     1   --> A_1  D_1  S_1  
     e( 24 - 24) =     14.24534  eV     1   --> A_1  D_1  S_1  
     e( 25 - 25) =     14.75546  eV     1   --> B_1  D_3  S_3  
     e( 26 - 26) =     16.71417  eV     1   -->   ?

 **************************************************************************

 **************************************************************************

                    xk=(   0.10000,   0.10000,   0.00000  )

     Band symmetry, C_2v (mm2)  point group:

     e(  1 -  1) =    -53.12149  eV     1   --> A_1  D_1  S_1  
     e(  2 -  2) =    -26.96020  eV     1   --> A_1  D_1  S_1  
     e(  3 -  3) =    -26.96000  eV     1   --> B_1  D_3  S_3  
     e(  4 -  4) =    -26.95644  eV     1   --> B_2  D_4  S_4  
     e(  5 -  5) =    -21.87357  eV     1   --> A_1  D_1  S_1  
     e(  6 -  6) =     -7.25897  eV     1   --> A_1  D_1  S_1  
     e(  7 -  7) =     -6.12201  eV     1   --> B_1  D_3  S_3  
     e(  8 -  8) =     -6.09172  eV     1   --> A_1  D_1  S_1  
     e(  9 -  9) =     -3.88135  eV     1   --> B_2  D_4  S_4  
     e( 10 - 10) =     -3.85508  eV     1   --> B_1  D_3  S_3  
     e( 11 - 11) =     -3.79052  eV     1   --> A_1  D_1  S_1  
     e( 12 - 12) =      7.09739  eV     1   --> A_1  D_1  S_1  
     e( 13 - 13) =      7.27312  eV     1   --> B_1  D_3  S_3  
     e( 14 - 14) =      7.32163  eV     1   --> B_2  D_4  S_4  
     e( 15 - 15) =      8.76770  eV     1   --> A_1  D_1  S_1  
     e( 16 - 16) =      8.94899  eV     1   --> A_2  D_2  S_2  
     e( 17 - 17) =      9.23627  eV     1   --> B_1  D_3  S_3  
     e( 18 - 18) =      9.59204  eV     1   --> A_1  D_1  S_1  
     e( 19 - 19) =      9.80950  eV     1   --> B_1  D_3  S_3  
     e( 20 - 20) =      9.87908  eV     1   --> B_2  D_4  S_4  
     e( 21 - 21) =     11.97192  eV     1   --> B_2  D_4  S_4  
     e( 22 - 22) =     12.03494  eV     1   --> A_2  D_2  S_2  
     e( 23 - 23) =     12.16538  eV     1   --> A_1  D_1  S_1  
     e( 24 - 24) =     14.16747  eV     1   --> A_1  D_1  S_1  
     e( 25 - 25) =     14.50865  eV     1   --> B_1  D_3  S_3  
     e( 26 - 26) =     16.53411  eV     1   -->   ?

 **************************************************************************

 **************************************************************************

                    xk=(   0.07500,   0.07500,   0.00000  )

     Band symmetry, C_2v (mm2)  point group:

     e(  1 -  1) =    -53.12156  eV     1   --> A_1  D_1  S_1  
     e(  2 -  2) =    -26.95874  eV     1   --> A_1  D_1  S_1  
     e(  3 -  3) =    -26.95861  eV     1   --> B_1  D_3  S_3  
     e(  4 -  4) =    -26.95657  eV     1   --> B_2  D_4  S_4  
     e(  5 -  5) =    -21.87619  eV     1   --> A_1  D_1  S_1  
     e(  6 -  6) =     -7.26302  eV     1   --> A_1  D_1  S_1  
     e(  7 -  7) =     -6.10993  eV     1   --> B_1  D_3  S_3  
     e(  8 -  8) =     -6.09382  eV     1   --> A_1  D_1  S_1  
     e(  9 -  9) =     -3.88654  eV     1   --> B_2  D_4  S_4  
     e( 10 - 10) =     -3.87138  eV     1   --> B_1  D_3  S_3  
     e( 11 - 11) =     -3.83210  eV     1   --> A_1  D_1  S_1  
     e( 12 - 12) =      7.19513  eV     1   --> A_1  D_1  S_1  
     e( 13 - 13) =      7.30131  eV     1   --> B_1  D_3  S_3  
     e( 14 - 14) =      7.32578  eV     1   --> B_2  D_4  S_4  
     e( 15 - 15) =      8.95593  eV     1   --> A_1  D_1  S_1  
     e( 16 - 16) =      9.06184  eV     1   --> A_2  D_2  S_2  
     e( 17 - 17) =      9.23285  eV     1   --> B_1  D_3  S_3  
     e( 18 - 18) =      9.77378  eV     1   --> A_1  D_1  S_1  
     e( 19 - 19) =      9.90973  eV     1   --> B_1  D_3  S_3  
     e( 20 - 20) =      9.95877  eV     1   --> B_2  D_4  S_4  
     e( 21 - 21) =     11.87675  eV     1   --> B_2  D_4  S_4  
     e( 22 - 22) =     11.91623  eV     1   --> A_2  D_2  S_2  
     e( 23 - 23) =     12.00728  eV     1   --> A_1  D_1  S_1  
     e( 24 - 24) =     14.09929  eV     1   --> A_1  D_1  S_1  
     e( 25 - 25) =     14.29873  eV     1   --> B_1  D_3  S_3  
     e( 26 - 26) =     16.38737  eV     1   -->   ?

 **************************************************************************

 **************************************************************************

                    xk=(   0.05000,   0.05000,   0.00000  )

     Band symmetry, C_2v (mm2)  point group:

     e(  1 -  1) =    -53.12160  eV     1   --> A_1  D_1  S_1  
     e(  2 -  3) =    -26.95765  eV     2   --> A_1  D_1  S_1  
     e(  2 -  3) =    -26.95765  eV     2   --> B_1  D_3  S_3  
     e(  4 -  4) =    -26.95669  eV     1   --> B_2  D_4  S_4  
     e(  5 -  5) =    -21.87814  eV     1   --> A_1  D_1  S_1  
     e(  6 -  6) =     -7.26556  eV     1   --> A_1  D_1  S_1  
     e(  7 -  7) =     -6.10094  eV     1   --> B_1  D_3  S_3  
     e(  8 -  8) =     -6.09414  eV     1   --> A_1  D_1  S_1  
     e(  9 -  9) =     -3.89033  eV     1   --> B_2  D_4  S_4  
     e( 10 - 10) =     -3.88347  eV     1   --> B_1  D_3  S_3  
     e( 11 - 11) =     -3.86498  eV     1   --> A_1  D_1  S_1  
     e( 12 - 12) =      7.26954  eV     1   --> A_1  D_1  S_1  
     e( 13 - 13) =      7.31920  eV     1   --> B_1  D_3  S_3  
     e( 14 - 14) =      7.32912  eV     1   --> B_2  D_4  S_4  
     e( 15 - 15) =      9.10256  eV     1   --> A_1  D_1  S_1  
     e( 16 - 16) =      9.15116  eV     1   --> A_2  D_2  S_2  
     e( 17 - 17) =      9.23054  eV     1   --> B_1  D_3  S_3  
     e( 18 - 18) =      9.92820  eV     1   --> A_1  D_1  S_1  
     e( 19 - 19) =      9.99530  eV     1   --> B_1  D_3  S_3  
     e( 20 - 20) =     10.02050  eV     1   --> B_2  D_4  S_4  
     e( 21 - 21) =     11.80341  eV     1   --> B_2  D_4  S_4  
     e( 22 - 22) =     11.82244  eV     1   --> A_2  D_2  S_2  
     e( 23 - 23) =     11.87131  eV     1   --> A_1  D_1  S_1  
     e( 24 - 24) =     14.04563  eV     1   --> A_1  D_1  S_1  
     e( 25 - 25) =     14.13702  eV     1   --> B_1  D_3  S_3  
     e( 26 - 26) =     16.27498  eV     1   -->   ?

 **************************************************************************

 **************************************************************************

                    xk=(   0.02500,   0.02500,   0.00000  )

     Band symmetry, C_2v (mm2)  point group:

     e(  1 -  1) =    -53.12164  eV     1   --> A_1  D_1  S_1  
     e(  2 -  3) =    -26.95701  eV     2   --> A_1  D_1  S_1  
     e(  2 -  3) =    -26.95701  eV     2   --> B_1  D_3  S_3  
     e(  4 -  4) =    -26.95676  eV     1   --> B_2  D_4  S_4  
     e(  5 -  5) =    -21.87934  eV     1   --> A_1  D_1  S_1  
     e(  6 -  6) =     -7.26696  eV     1   --> A_1  D_1  S_1  
     e(  7 -  7) =     -6.09541  eV     1   --> B_1  D_3  S_3  
     e(  8 -  8) =     -6.09377  eV     1   --> A_1  D_1  S_1  
     e(  9 -  9) =     -3.89264  eV     1   --> B_2  D_4  S_4  
     e( 10 - 10) =     -3.89090  eV     1   --> B_1  D_3  S_3  
     e( 11 - 11) =     -3.88614  eV     1   --> A_1  D_1  S_1  
     e( 12 - 12) =      7.31615  eV     1   --> A_1  D_1  S_1  
     e( 13 - 13) =      7.32895  eV     1   --> B_1  D_3  S_3  
     e( 14 - 14) =      7.33128  eV     1   --> B_2  D_4  S_4  
     e( 15 - 15) =      9.19659  eV     1   --> A_1  D_1  S_1  
     e( 16 - 16) =      9.20900  eV     1   --> A_2  D_2  S_2  
     e( 17 - 17) =      9.22941  eV     1   --> B_1  D_3  S_3  
     e( 18 - 18) =     10.03484  eV     1   --> A_1  D_1  S_1  
     e( 19 - 19) =     10.05305  eV     1   --> B_1  D_3  S_3  
     e( 20 - 20) =     10.05989  eV     1   --> B_2  D_4  S_4  
     e( 21 - 21) =     11.75676  eV     1   --> B_2  D_4  S_4  
     e( 22 - 22) =     11.76181  eV     1   --> A_2  D_2  S_2  
     e( 23 - 23) =     11.77575  eV     1   --> A_1  D_1  S_1  
     e( 24 - 24) =     14.01108  eV     1   --> A_1  D_1  S_1  
     e( 25 - 25) =     14.03442  eV     1   --> B_1  D_3  S_3  
     e( 26 - 26) =     16.20821  eV     1   -->   ?

 **************************************************************************

 **************************************************************************

                    xk=(   0.00000,   0.00000,   0.00000  )

     point group O_h (m-3m) 
     there are 10 classes
     the character table:

       E     8C3   3C2   6C4   6C2'  i     8S6   3s_h  6S4   6s_d 
A_1g   1.00  1.00  1.00  1.00  1.00  1.00  1.00  1.00  1.00  1.00
A_2g   1.00  1.00  1.00 -1.00 -1.00  1.00  1.00  1.00 -1.00 -1.00
E_g    2.00 -1.00  2.00  0.00  0.00  2.00 -1.00  2.00  0.00  0.00
T_1g   3.00  0.00 -1.00  1.00 -1.00  3.00  0.00 -1.00  1.00 -1.00
T_2g   3.00  0.00 -1.00 -1.00  1.00  3.00  0.00 -1.00 -1.00  1.00
A_1u   1.00  1.00  1.00  1.00  1.00 -1.00 -1.00 -1.00 -1.00 -1.00
A_2u   1.00  1.00  1.00 -1.00 -1.00 -1.00 -1.00 -1.00  1.00  1.00
E_u    2.00 -1.00  2.00  0.00  0.00 -2.00  1.00 -2.00  0.00  0.00
T_1u   3.00  0.00 -1.00  1.00 -1.00 -3.00  0.00  1.00 -1.00  1.00
T_2u   3.00  0.00 -1.00 -1.00  1.00 -3.00  0.00  1.00  1.00 -1.00

     the symmetry operations in each class and the name of the first element:

     E        1
                                                                 
     8C3     17   19   20   18   24   21   22   23
                                                                 
     3C2      2    4    3
                                                                 
     6C4      7    8   15   16   12   11
                                                                 
     6C2'     5    6   14   13   10    9
                                                                 
     i       25
                                                                 
     8S6     41   43   44   42   48   45   46   47
                                                                 
     3s_h    26   28   27
                                                                 
     6S4     31   32   39   40   36   35
                                                                 
     6s_d    29   30   38   37   34   33
                                                                 

     Band symmetry, O_h (m-3m)  point group:

     e(  1 -  1) =    -53.12164  eV     1   --> A_1g G_1   G_1+
     e(  2 -  4) =    -26.95677  eV     3   --> T_1u G_15  G_4-
     e(  5 -  5) =    -21.87974  eV     1   --> A_1g G_1   G_1+
     e(  6 -  6) =     -7.26739  eV     1   --> A_1g G_1   G_1+
     e(  7 -  8) =     -6.09353  eV     2   --> E_g  G_12  G_3+
     e(  9 - 11) =     -3.89341  eV     3   --> T_1u G_15  G_4-
     e( 12 - 14) =      7.33204  eV     3   --> T_1u G_15  G_4-
     e( 15 - 17) =      9.22909  eV     3   --> T_2u G_25  G_5-
     e( 18 - 20) =     10.07348  eV     3   --> T_1u G_15  G_4-
     e( 21 - 23) =     11.74077  eV     3   --> T_2g G_25' G_5+
     e( 24 - 25) =     13.99913  eV     2   --> E_g  G_12  G_3+
     e( 26 - 26) =     16.18510  eV     1   -->   ?

 **************************************************************************

     BANDS        :     12.53s CPU     14.69s WALL


   This run was terminated on:  12:18:49  22Sep2023            

=------------------------------------------------------------------------------=
   JOB DONE.
=------------------------------------------------------------------------------=
