
     Program PWSCF v.7.1 starts on 22Sep2023 at 12:18:23 

     This program is part of the open-source Quantum ESPRESSO suite
     for quantum simulation of materials; please cite
         "P. Giannozzi et al., J. Phys.:Condens. Matter 21 395502 (2009);
         "P. Giannozzi et al., J. Phys.:Condens. Matter 29 465901 (2017);
         "P. Giannozzi et al., J. Chem. Phys. 152 154105 (2020);
          URL http://www.quantum-espresso.org", 
     in publications or presentations arising from this work. More details at
     http://www.quantum-espresso.org/quote

     Parallel version (MPI & OpenMP), running on      10 processor cores
     Number of MPI processes:                10
     Threads/MPI process:                     1

     MPI processes distributed on     1 nodes
     11741 MiB available memory on the printing compute node when the environment starts

     Waiting for input...
     Reading input from standard input

     Current dimensions of program PWSCF are:
     Max number of different atomic species (ntypx) = 10
     Max number of k-points (npk) =  40000
     Max angular momentum in pseudopotentials (lmaxx) =  4

     Atomic positions and unit cell read from directory:
     ./work/pwscf.save/

     file V.pbe-spn-kjpaw_psl.1.0.0.UPF: wavefunction(s)  3P 3D renormalized
     file Sr.pbe-spn-kjpaw_psl.1.0.0.UPF: wavefunction(s)  4P renormalized
     file O.pbe-n-kjpaw_psl.1.0.0.UPF: wavefunction(s)  2S 2P renormalized
     Message from routine setup:
     using ibrav=0 with symmetry is DISCOURAGED, use correct ibrav instead

     R & G space division:  proc/nbgrp/npool/nimage =      10
     Subspace diagonalization in iterative solution of the eigenvalue problem:
     a serial algorithm will be used


     Parallelization info
     --------------------
     sticks:   dense  smooth     PW     G-vecs:    dense   smooth      PW
     Min         270      84     25                10494     1826     307
     Max         271      85     27                10497     1829     308
     Sum        2701     845    253               104943    18277    3071

     Using Slab Decomposition



     bravais-lattice index     =            0
     lattice parameter (alat)  =       7.2582  a.u.
     unit-cell volume          =     382.3804 (a.u.)^3
     number of atoms/cell      =            5
     number of atomic types    =            3
     number of electrons       =        41.00
     number of Kohn-Sham states=           26
     kinetic-energy cutoff     =      50.0000  Ry
     charge density cutoff     =     641.0000  Ry
     Exchange-correlation= SLA  PW   PBX  PBC
                           (   1   4   3   4   0   0   0)

     celldm(1)=   7.258249  celldm(2)=   0.000000  celldm(3)=   0.000000
     celldm(4)=   0.000000  celldm(5)=   0.000000  celldm(6)=   0.000000

     crystal axes: (cart. coord. in units of alat)
               a(1) = (   1.000000   0.000000   0.000000 )  
               a(2) = (   0.000000   1.000000   0.000000 )  
               a(3) = (   0.000000   0.000000   1.000000 )  

     reciprocal axes: (cart. coord. in units 2 pi/alat)
               b(1) = (  1.000000  0.000000  0.000000 )  
               b(2) = (  0.000000  1.000000  0.000000 )  
               b(3) = (  0.000000  0.000000  1.000000 )  


     PseudoPot. # 1 for V  read from file:
     ./../../pseudo/psl100_PBE/V.pbe-spn-kjpaw_psl.1.0.0.UPF
     MD5 check sum: cba1cdff171fe0d1b5c7b7b536adf2ed
     Pseudo is Projector augmented-wave + core cor, Zval = 13.0
     Generated using 'atomic' code by A. Dal Corso  v.7.2
     Shape of augmentation charge: PSQ
     Using radial grid of 1181 points,  6 beta functions with: 
                l(1) =   0
                l(2) =   0
                l(3) =   1
                l(4) =   1
                l(5) =   2
                l(6) =   2
     Q(r) pseudized with 0 coefficients 


     PseudoPot. # 2 for Sr read from file:
     ./../../pseudo/psl100_PBE/Sr.pbe-spn-kjpaw_psl.1.0.0.UPF
     MD5 check sum: 0afa415ff111c26dfdea74d82c25ad94
     Pseudo is Projector augmented-wave + core cor, Zval = 10.0
     Generated using 'atomic' code by A. Dal Corso  v.7.2
     Shape of augmentation charge: PSQ
     Using radial grid of 1221 points,  6 beta functions with: 
                l(1) =   0
                l(2) =   0
                l(3) =   1
                l(4) =   1
                l(5) =   2
                l(6) =   2
     Q(r) pseudized with 0 coefficients 


     PseudoPot. # 3 for O  read from file:
     ./../../pseudo/psl100_PBE/O.pbe-n-kjpaw_psl.1.0.0.UPF
     MD5 check sum: eca5c60c16f5a4fc86cb100254d05a93
     Pseudo is Projector augmented-wave + core cor, Zval =  6.0
     Generated using 'atomic' code by A. Dal Corso  v.7.2
     Shape of augmentation charge: PSQ
     Using radial grid of 1095 points,  4 beta functions with: 
                l(1) =   0
                l(2) =   0
                l(3) =   1
                l(4) =   1
     Q(r) pseudized with 0 coefficients 


     atomic species   valence    mass     pseudopotential
        V             13.00    50.94150     V ( 1.00)
        Sr            10.00    87.62000     Sr( 1.00)
        O              6.00    15.99900     O ( 1.00)

     48 Sym. Ops., with inversion, found


                                    s                        frac. trans.

      isym =  1     identity                                     

 cryst.   s( 1) = (     1          0          0      )
                  (     0          1          0      )
                  (     0          0          1      )

 cart.    s( 1) = (  1.0000000  0.0000000  0.0000000 )
                  (  0.0000000  1.0000000  0.0000000 )
                  (  0.0000000  0.0000000  1.0000000 )


      isym =  2     180 deg rotation - cart. axis [0,0,1]        

 cryst.   s( 2) = (    -1          0          0      )
                  (     0         -1          0      )
                  (     0          0          1      )

 cart.    s( 2) = ( -1.0000000  0.0000000  0.0000000 )
                  (  0.0000000 -1.0000000  0.0000000 )
                  (  0.0000000  0.0000000  1.0000000 )


      isym =  3     180 deg rotation - cart. axis [0,1,0]        

 cryst.   s( 3) = (    -1          0          0      )
                  (     0          1          0      )
                  (     0          0         -1      )

 cart.    s( 3) = ( -1.0000000  0.0000000  0.0000000 )
                  (  0.0000000  1.0000000  0.0000000 )
                  (  0.0000000  0.0000000 -1.0000000 )


      isym =  4     180 deg rotation - cart. axis [1,0,0]        

 cryst.   s( 4) = (     1          0          0      )
                  (     0         -1          0      )
                  (     0          0         -1      )

 cart.    s( 4) = (  1.0000000  0.0000000  0.0000000 )
                  (  0.0000000 -1.0000000  0.0000000 )
                  (  0.0000000  0.0000000 -1.0000000 )


      isym =  5     180 deg rotation - cart. axis [1,1,0]        

 cryst.   s( 5) = (     0          1          0      )
                  (     1          0          0      )
                  (     0          0         -1      )

 cart.    s( 5) = (  0.0000000  1.0000000  0.0000000 )
                  (  1.0000000  0.0000000  0.0000000 )
                  (  0.0000000  0.0000000 -1.0000000 )


      isym =  6     180 deg rotation - cart. axis [1,-1,0]       

 cryst.   s( 6) = (     0         -1          0      )
                  (    -1          0          0      )
                  (     0          0         -1      )

 cart.    s( 6) = (  0.0000000 -1.0000000  0.0000000 )
                  ( -1.0000000  0.0000000  0.0000000 )
                  (  0.0000000  0.0000000 -1.0000000 )


      isym =  7      90 deg rotation - cart. axis [0,0,-1]       

 cryst.   s( 7) = (     0         -1          0      )
                  (     1          0          0      )
                  (     0          0          1      )

 cart.    s( 7) = (  0.0000000  1.0000000  0.0000000 )
                  ( -1.0000000  0.0000000  0.0000000 )
                  (  0.0000000  0.0000000  1.0000000 )


      isym =  8      90 deg rotation - cart. axis [0,0,1]        

 cryst.   s( 8) = (     0          1          0      )
                  (    -1          0          0      )
                  (     0          0          1      )

 cart.    s( 8) = (  0.0000000 -1.0000000  0.0000000 )
                  (  1.0000000  0.0000000  0.0000000 )
                  (  0.0000000  0.0000000  1.0000000 )


      isym =  9     180 deg rotation - cart. axis [1,0,1]        

 cryst.   s( 9) = (     0          0          1      )
                  (     0         -1          0      )
                  (     1          0          0      )

 cart.    s( 9) = (  0.0000000  0.0000000  1.0000000 )
                  (  0.0000000 -1.0000000  0.0000000 )
                  (  1.0000000  0.0000000  0.0000000 )


      isym = 10     180 deg rotation - cart. axis [-1,0,1]       

 cryst.   s(10) = (     0          0         -1      )
                  (     0         -1          0      )
                  (    -1          0          0      )

 cart.    s(10) = (  0.0000000  0.0000000 -1.0000000 )
                  (  0.0000000 -1.0000000  0.0000000 )
                  ( -1.0000000  0.0000000  0.0000000 )


      isym = 11      90 deg rotation - cart. axis [0,1,0]        

 cryst.   s(11) = (     0          0         -1      )
                  (     0          1          0      )
                  (     1          0          0      )

 cart.    s(11) = (  0.0000000  0.0000000  1.0000000 )
                  (  0.0000000  1.0000000  0.0000000 )
                  ( -1.0000000  0.0000000  0.0000000 )


      isym = 12      90 deg rotation - cart. axis [0,-1,0]       

 cryst.   s(12) = (     0          0          1      )
                  (     0          1          0      )
                  (    -1          0          0      )

 cart.    s(12) = (  0.0000000  0.0000000 -1.0000000 )
                  (  0.0000000  1.0000000  0.0000000 )
                  (  1.0000000  0.0000000  0.0000000 )


      isym = 13     180 deg rotation - cart. axis [0,1,1]        

 cryst.   s(13) = (    -1          0          0      )
                  (     0          0          1      )
                  (     0          1          0      )

 cart.    s(13) = ( -1.0000000  0.0000000  0.0000000 )
                  (  0.0000000  0.0000000  1.0000000 )
                  (  0.0000000  1.0000000  0.0000000 )


      isym = 14     180 deg rotation - cart. axis [0,1,-1]       

 cryst.   s(14) = (    -1          0          0      )
                  (     0          0         -1      )
                  (     0         -1          0      )

 cart.    s(14) = ( -1.0000000  0.0000000  0.0000000 )
                  (  0.0000000  0.0000000 -1.0000000 )
                  (  0.0000000 -1.0000000  0.0000000 )


      isym = 15      90 deg rotation - cart. axis [-1,0,0]       

 cryst.   s(15) = (     1          0          0      )
                  (     0          0         -1      )
                  (     0          1          0      )

 cart.    s(15) = (  1.0000000  0.0000000  0.0000000 )
                  (  0.0000000  0.0000000  1.0000000 )
                  (  0.0000000 -1.0000000  0.0000000 )


      isym = 16      90 deg rotation - cart. axis [1,0,0]        

 cryst.   s(16) = (     1          0          0      )
                  (     0          0          1      )
                  (     0         -1          0      )

 cart.    s(16) = (  1.0000000  0.0000000  0.0000000 )
                  (  0.0000000  0.0000000 -1.0000000 )
                  (  0.0000000  1.0000000  0.0000000 )


      isym = 17     120 deg rotation - cart. axis [-1,-1,-1]     

 cryst.   s(17) = (     0          0          1      )
                  (     1          0          0      )
                  (     0          1          0      )

 cart.    s(17) = (  0.0000000  1.0000000  0.0000000 )
                  (  0.0000000  0.0000000  1.0000000 )
                  (  1.0000000  0.0000000  0.0000000 )


      isym = 18     120 deg rotation - cart. axis [-1,1,1]       

 cryst.   s(18) = (     0          0         -1      )
                  (    -1          0          0      )
                  (     0          1          0      )

 cart.    s(18) = (  0.0000000 -1.0000000  0.0000000 )
                  (  0.0000000  0.0000000  1.0000000 )
                  ( -1.0000000  0.0000000  0.0000000 )


      isym = 19     120 deg rotation - cart. axis [1,1,-1]       

 cryst.   s(19) = (     0          0         -1      )
                  (     1          0          0      )
                  (     0         -1          0      )

 cart.    s(19) = (  0.0000000  1.0000000  0.0000000 )
                  (  0.0000000  0.0000000 -1.0000000 )
                  ( -1.0000000  0.0000000  0.0000000 )


      isym = 20     120 deg rotation - cart. axis [1,-1,1]       

 cryst.   s(20) = (     0          0          1      )
                  (    -1          0          0      )
                  (     0         -1          0      )

 cart.    s(20) = (  0.0000000 -1.0000000  0.0000000 )
                  (  0.0000000  0.0000000 -1.0000000 )
                  (  1.0000000  0.0000000  0.0000000 )


      isym = 21     120 deg rotation - cart. axis [1,1,1]        

 cryst.   s(21) = (     0          1          0      )
                  (     0          0          1      )
                  (     1          0          0      )

 cart.    s(21) = (  0.0000000  0.0000000  1.0000000 )
                  (  1.0000000  0.0000000  0.0000000 )
                  (  0.0000000  1.0000000  0.0000000 )


      isym = 22     120 deg rotation - cart. axis [-1,1,-1]      

 cryst.   s(22) = (     0         -1          0      )
                  (     0          0         -1      )
                  (     1          0          0      )

 cart.    s(22) = (  0.0000000  0.0000000  1.0000000 )
                  ( -1.0000000  0.0000000  0.0000000 )
                  (  0.0000000 -1.0000000  0.0000000 )


      isym = 23     120 deg rotation - cart. axis [1,-1,-1]      

 cryst.   s(23) = (     0         -1          0      )
                  (     0          0          1      )
                  (    -1          0          0      )

 cart.    s(23) = (  0.0000000  0.0000000 -1.0000000 )
                  ( -1.0000000  0.0000000  0.0000000 )
                  (  0.0000000  1.0000000  0.0000000 )


      isym = 24     120 deg rotation - cart. axis [-1,-1,1]      

 cryst.   s(24) = (     0          1          0      )
                  (     0          0         -1      )
                  (    -1          0          0      )

 cart.    s(24) = (  0.0000000  0.0000000 -1.0000000 )
                  (  1.0000000  0.0000000  0.0000000 )
                  (  0.0000000 -1.0000000  0.0000000 )


      isym = 25     inversion                                    

 cryst.   s(25) = (    -1          0          0      )
                  (     0         -1          0      )
                  (     0          0         -1      )

 cart.    s(25) = ( -1.0000000  0.0000000  0.0000000 )
                  (  0.0000000 -1.0000000  0.0000000 )
                  (  0.0000000  0.0000000 -1.0000000 )


      isym = 26     inv. 180 deg rotation - cart. axis [0,0,1]   

 cryst.   s(26) = (     1          0          0      )
                  (     0          1          0      )
                  (     0          0         -1      )

 cart.    s(26) = (  1.0000000  0.0000000  0.0000000 )
                  (  0.0000000  1.0000000  0.0000000 )
                  (  0.0000000  0.0000000 -1.0000000 )


      isym = 27     inv. 180 deg rotation - cart. axis [0,1,0]   

 cryst.   s(27) = (     1          0          0      )
                  (     0         -1          0      )
                  (     0          0          1      )

 cart.    s(27) = (  1.0000000  0.0000000  0.0000000 )
                  (  0.0000000 -1.0000000  0.0000000 )
                  (  0.0000000  0.0000000  1.0000000 )


      isym = 28     inv. 180 deg rotation - cart. axis [1,0,0]   

 cryst.   s(28) = (    -1          0          0      )
                  (     0          1          0      )
                  (     0          0          1      )

 cart.    s(28) = ( -1.0000000  0.0000000  0.0000000 )
                  (  0.0000000  1.0000000  0.0000000 )
                  (  0.0000000  0.0000000  1.0000000 )


      isym = 29     inv. 180 deg rotation - cart. axis [1,1,0]   

 cryst.   s(29) = (     0         -1          0      )
                  (    -1          0          0      )
                  (     0          0          1      )

 cart.    s(29) = (  0.0000000 -1.0000000  0.0000000 )
                  ( -1.0000000  0.0000000  0.0000000 )
                  (  0.0000000  0.0000000  1.0000000 )


      isym = 30     inv. 180 deg rotation - cart. axis [1,-1,0]  

 cryst.   s(30) = (     0          1          0      )
                  (     1          0          0      )
                  (     0          0          1      )

 cart.    s(30) = (  0.0000000  1.0000000  0.0000000 )
                  (  1.0000000  0.0000000  0.0000000 )
                  (  0.0000000  0.0000000  1.0000000 )


      isym = 31     inv.  90 deg rotation - cart. axis [0,0,-1]  

 cryst.   s(31) = (     0          1          0      )
                  (    -1          0          0      )
                  (     0          0         -1      )

 cart.    s(31) = (  0.0000000 -1.0000000  0.0000000 )
                  (  1.0000000  0.0000000  0.0000000 )
                  (  0.0000000  0.0000000 -1.0000000 )


      isym = 32     inv.  90 deg rotation - cart. axis [0,0,1]   

 cryst.   s(32) = (     0         -1          0      )
                  (     1          0          0      )
                  (     0          0         -1      )

 cart.    s(32) = (  0.0000000  1.0000000  0.0000000 )
                  ( -1.0000000  0.0000000  0.0000000 )
                  (  0.0000000  0.0000000 -1.0000000 )


      isym = 33     inv. 180 deg rotation - cart. axis [1,0,1]   

 cryst.   s(33) = (     0          0         -1      )
                  (     0          1          0      )
                  (    -1          0          0      )

 cart.    s(33) = (  0.0000000  0.0000000 -1.0000000 )
                  (  0.0000000  1.0000000  0.0000000 )
                  ( -1.0000000  0.0000000  0.0000000 )


      isym = 34     inv. 180 deg rotation - cart. axis [-1,0,1]  

 cryst.   s(34) = (     0          0          1      )
                  (     0          1          0      )
                  (     1          0          0      )

 cart.    s(34) = (  0.0000000  0.0000000  1.0000000 )
                  (  0.0000000  1.0000000  0.0000000 )
                  (  1.0000000  0.0000000  0.0000000 )


      isym = 35     inv.  90 deg rotation - cart. axis [0,1,0]   

 cryst.   s(35) = (     0          0          1      )
                  (     0         -1          0      )
                  (    -1          0          0      )

 cart.    s(35) = (  0.0000000  0.0000000 -1.0000000 )
                  (  0.0000000 -1.0000000  0.0000000 )
                  (  1.0000000  0.0000000  0.0000000 )


      isym = 36     inv.  90 deg rotation - cart. axis [0,-1,0]  

 cryst.   s(36) = (     0          0         -1      )
                  (     0         -1          0      )
                  (     1          0          0      )

 cart.    s(36) = (  0.0000000  0.0000000  1.0000000 )
                  (  0.0000000 -1.0000000  0.0000000 )
                  ( -1.0000000  0.0000000  0.0000000 )


      isym = 37     inv. 180 deg rotation - cart. axis [0,1,1]   

 cryst.   s(37) = (     1          0          0      )
                  (     0          0         -1      )
                  (     0         -1          0      )

 cart.    s(37) = (  1.0000000  0.0000000  0.0000000 )
                  (  0.0000000  0.0000000 -1.0000000 )
                  (  0.0000000 -1.0000000  0.0000000 )


      isym = 38     inv. 180 deg rotation - cart. axis [0,1,-1]  

 cryst.   s(38) = (     1          0          0      )
                  (     0          0          1      )
                  (     0          1          0      )

 cart.    s(38) = (  1.0000000  0.0000000  0.0000000 )
                  (  0.0000000  0.0000000  1.0000000 )
                  (  0.0000000  1.0000000  0.0000000 )


      isym = 39     inv.  90 deg rotation - cart. axis [-1,0,0]  

 cryst.   s(39) = (    -1          0          0      )
                  (     0          0          1      )
                  (     0         -1          0      )

 cart.    s(39) = ( -1.0000000  0.0000000  0.0000000 )
                  (  0.0000000  0.0000000 -1.0000000 )
                  (  0.0000000  1.0000000  0.0000000 )


      isym = 40     inv.  90 deg rotation - cart. axis [1,0,0]   

 cryst.   s(40) = (    -1          0          0      )
                  (     0          0         -1      )
                  (     0          1          0      )

 cart.    s(40) = ( -1.0000000  0.0000000  0.0000000 )
                  (  0.0000000  0.0000000  1.0000000 )
                  (  0.0000000 -1.0000000  0.0000000 )


      isym = 41     inv. 120 deg rotation - cart. axis [-1,-1,-1]

 cryst.   s(41) = (     0          0         -1      )
                  (    -1          0          0      )
                  (     0         -1          0      )

 cart.    s(41) = (  0.0000000 -1.0000000  0.0000000 )
                  (  0.0000000  0.0000000 -1.0000000 )
                  ( -1.0000000  0.0000000  0.0000000 )


      isym = 42     inv. 120 deg rotation - cart. axis [-1,1,1]  

 cryst.   s(42) = (     0          0          1      )
                  (     1          0          0      )
                  (     0         -1          0      )

 cart.    s(42) = (  0.0000000  1.0000000  0.0000000 )
                  (  0.0000000  0.0000000 -1.0000000 )
                  (  1.0000000  0.0000000  0.0000000 )


      isym = 43     inv. 120 deg rotation - cart. axis [1,1,-1]  

 cryst.   s(43) = (     0          0          1      )
                  (    -1          0          0      )
                  (     0          1          0      )

 cart.    s(43) = (  0.0000000 -1.0000000  0.0000000 )
                  (  0.0000000  0.0000000  1.0000000 )
                  (  1.0000000  0.0000000  0.0000000 )


      isym = 44     inv. 120 deg rotation - cart. axis [1,-1,1]  

 cryst.   s(44) = (     0          0         -1      )
                  (     1          0          0      )
                  (     0          1          0      )

 cart.    s(44) = (  0.0000000  1.0000000  0.0000000 )
                  (  0.0000000  0.0000000  1.0000000 )
                  ( -1.0000000  0.0000000  0.0000000 )


      isym = 45     inv. 120 deg rotation - cart. axis [1,1,1]   

 cryst.   s(45) = (     0         -1          0      )
                  (     0          0         -1      )
                  (    -1          0          0      )

 cart.    s(45) = (  0.0000000  0.0000000 -1.0000000 )
                  ( -1.0000000  0.0000000  0.0000000 )
                  (  0.0000000 -1.0000000  0.0000000 )


      isym = 46     inv. 120 deg rotation - cart. axis [-1,1,-1] 

 cryst.   s(46) = (     0          1          0      )
                  (     0          0          1      )
                  (    -1          0          0      )

 cart.    s(46) = (  0.0000000  0.0000000 -1.0000000 )
                  (  1.0000000  0.0000000  0.0000000 )
                  (  0.0000000  1.0000000  0.0000000 )


      isym = 47     inv. 120 deg rotation - cart. axis [1,-1,-1] 

 cryst.   s(47) = (     0          1          0      )
                  (     0          0         -1      )
                  (     1          0          0      )

 cart.    s(47) = (  0.0000000  0.0000000  1.0000000 )
                  (  1.0000000  0.0000000  0.0000000 )
                  (  0.0000000 -1.0000000  0.0000000 )


      isym = 48     inv. 120 deg rotation - cart. axis [-1,-1,1] 

 cryst.   s(48) = (     0         -1          0      )
                  (     0          0          1      )
                  (     1          0          0      )

 cart.    s(48) = (  0.0000000  0.0000000  1.0000000 )
                  ( -1.0000000  0.0000000  0.0000000 )
                  (  0.0000000  1.0000000  0.0000000 )


   Cartesian axes

     site n.     atom                  positions (alat units)
         1           Sr  tau(   1) = (   0.5000000   0.5000000   0.5000000  )
         2           V   tau(   2) = (   0.0000000   0.0000000   0.0000000  )
         3           O   tau(   3) = (   0.5000000   0.0000000   0.0000000  )
         4           O   tau(   4) = (   0.0000000   0.5000000   0.0000000  )
         5           O   tau(   5) = (   0.0000000   0.0000000   0.5000000  )

   Crystallographic axes

     site n.     atom                  positions (cryst. coord.)
         1           Sr  tau(   1) = (  0.5000000  0.5000000  0.5000000  )
         2           V   tau(   2) = (  0.0000000  0.0000000  0.0000000  )
         3           O   tau(   3) = (  0.5000000  0.0000000  0.0000000  )
         4           O   tau(   4) = (  0.0000000  0.5000000  0.0000000  )
         5           O   tau(   5) = (  0.0000000  0.0000000  0.5000000  )

     number of k points=    81  Methfessel-Paxton smearing, width (Ry)=  0.0100
                       cart. coord. in units 2pi/alat
        k(    1) = (   0.5000000   0.5000000   0.5000000), wk =   0.0246914
        k(    2) = (   0.4750000   0.4750000   0.4750000), wk =   0.0246914
        k(    3) = (   0.4500000   0.4500000   0.4500000), wk =   0.0246914
        k(    4) = (   0.4250000   0.4250000   0.4250000), wk =   0.0246914
        k(    5) = (   0.4000000   0.4000000   0.4000000), wk =   0.0246914
        k(    6) = (   0.3750000   0.3750000   0.3750000), wk =   0.0246914
        k(    7) = (   0.3500000   0.3500000   0.3500000), wk =   0.0246914
        k(    8) = (   0.3250000   0.3250000   0.3250000), wk =   0.0246914
        k(    9) = (   0.3000000   0.3000000   0.3000000), wk =   0.0246914
        k(   10) = (   0.2750000   0.2750000   0.2750000), wk =   0.0246914
        k(   11) = (   0.2500000   0.2500000   0.2500000), wk =   0.0246914
        k(   12) = (   0.2250000   0.2250000   0.2250000), wk =   0.0246914
        k(   13) = (   0.2000000   0.2000000   0.2000000), wk =   0.0246914
        k(   14) = (   0.1750000   0.1750000   0.1750000), wk =   0.0246914
        k(   15) = (   0.1500000   0.1500000   0.1500000), wk =   0.0246914
        k(   16) = (   0.1250000   0.1250000   0.1250000), wk =   0.0246914
        k(   17) = (   0.1000000   0.1000000   0.1000000), wk =   0.0246914
        k(   18) = (   0.0750000   0.0750000   0.0750000), wk =   0.0246914
        k(   19) = (   0.0500000   0.0500000   0.0500000), wk =   0.0246914
        k(   20) = (   0.0250000   0.0250000   0.0250000), wk =   0.0246914
        k(   21) = (   0.0000000   0.0000000   0.0000000), wk =   0.0246914
        k(   22) = (   0.0000000   0.0250000   0.0000000), wk =   0.0246914
        k(   23) = (   0.0000000   0.0500000   0.0000000), wk =   0.0246914
        k(   24) = (   0.0000000   0.0750000   0.0000000), wk =   0.0246914
        k(   25) = (   0.0000000   0.1000000   0.0000000), wk =   0.0246914
        k(   26) = (   0.0000000   0.1250000   0.0000000), wk =   0.0246914
        k(   27) = (   0.0000000   0.1500000   0.0000000), wk =   0.0246914
        k(   28) = (   0.0000000   0.1750000   0.0000000), wk =   0.0246914
        k(   29) = (   0.0000000   0.2000000   0.0000000), wk =   0.0246914
        k(   30) = (   0.0000000   0.2250000   0.0000000), wk =   0.0246914
        k(   31) = (   0.0000000   0.2500000   0.0000000), wk =   0.0246914
        k(   32) = (   0.0000000   0.2750000   0.0000000), wk =   0.0246914
        k(   33) = (   0.0000000   0.3000000   0.0000000), wk =   0.0246914
        k(   34) = (   0.0000000   0.3250000   0.0000000), wk =   0.0246914
        k(   35) = (   0.0000000   0.3500000   0.0000000), wk =   0.0246914
        k(   36) = (   0.0000000   0.3750000   0.0000000), wk =   0.0246914
        k(   37) = (   0.0000000   0.4000000   0.0000000), wk =   0.0246914
        k(   38) = (   0.0000000   0.4250000   0.0000000), wk =   0.0246914
        k(   39) = (   0.0000000   0.4500000   0.0000000), wk =   0.0246914
        k(   40) = (   0.0000000   0.4750000   0.0000000), wk =   0.0246914
        k(   41) = (   0.0000000   0.5000000   0.0000000), wk =   0.0246914
        k(   42) = (   0.0250000   0.5000000   0.0000000), wk =   0.0246914
        k(   43) = (   0.0500000   0.5000000   0.0000000), wk =   0.0246914
        k(   44) = (   0.0750000   0.5000000   0.0000000), wk =   0.0246914
        k(   45) = (   0.1000000   0.5000000   0.0000000), wk =   0.0246914
        k(   46) = (   0.1250000   0.5000000   0.0000000), wk =   0.0246914
        k(   47) = (   0.1500000   0.5000000   0.0000000), wk =   0.0246914
        k(   48) = (   0.1750000   0.5000000   0.0000000), wk =   0.0246914
        k(   49) = (   0.2000000   0.5000000   0.0000000), wk =   0.0246914
        k(   50) = (   0.2250000   0.5000000   0.0000000), wk =   0.0246914
        k(   51) = (   0.2500000   0.5000000   0.0000000), wk =   0.0246914
        k(   52) = (   0.2750000   0.5000000   0.0000000), wk =   0.0246914
        k(   53) = (   0.3000000   0.5000000   0.0000000), wk =   0.0246914
        k(   54) = (   0.3250000   0.5000000   0.0000000), wk =   0.0246914
        k(   55) = (   0.3500000   0.5000000   0.0000000), wk =   0.0246914
        k(   56) = (   0.3750000   0.5000000   0.0000000), wk =   0.0246914
        k(   57) = (   0.4000000   0.5000000   0.0000000), wk =   0.0246914
        k(   58) = (   0.4250000   0.5000000   0.0000000), wk =   0.0246914
        k(   59) = (   0.4500000   0.5000000   0.0000000), wk =   0.0246914
        k(   60) = (   0.4750000   0.5000000   0.0000000), wk =   0.0246914
        k(   61) = (   0.5000000   0.5000000   0.0000000), wk =   0.0246914
        k(   62) = (   0.4750000   0.4750000   0.0000000), wk =   0.0246914
        k(   63) = (   0.4500000   0.4500000   0.0000000), wk =   0.0246914
        k(   64) = (   0.4250000   0.4250000   0.0000000), wk =   0.0246914
        k(   65) = (   0.4000000   0.4000000   0.0000000), wk =   0.0246914
        k(   66) = (   0.3750000   0.3750000   0.0000000), wk =   0.0246914
        k(   67) = (   0.3500000   0.3500000   0.0000000), wk =   0.0246914
        k(   68) = (   0.3250000   0.3250000   0.0000000), wk =   0.0246914
        k(   69) = (   0.3000000   0.3000000   0.0000000), wk =   0.0246914
        k(   70) = (   0.2750000   0.2750000   0.0000000), wk =   0.0246914
        k(   71) = (   0.2500000   0.2500000   0.0000000), wk =   0.0246914
        k(   72) = (   0.2250000   0.2250000   0.0000000), wk =   0.0246914
        k(   73) = (   0.2000000   0.2000000   0.0000000), wk =   0.0246914
        k(   74) = (   0.1750000   0.1750000   0.0000000), wk =   0.0246914
        k(   75) = (   0.1500000   0.1500000   0.0000000), wk =   0.0246914
        k(   76) = (   0.1250000   0.1250000   0.0000000), wk =   0.0246914
        k(   77) = (   0.1000000   0.1000000   0.0000000), wk =   0.0246914
        k(   78) = (   0.0750000   0.0750000   0.0000000), wk =   0.0246914
        k(   79) = (   0.0500000   0.0500000   0.0000000), wk =   0.0246914
        k(   80) = (   0.0250000   0.0250000   0.0000000), wk =   0.0246914
        k(   81) = (   0.0000000   0.0000000   0.0000000), wk =   0.0246914

                       cryst. coord.
        k(    1) = (   0.5000000   0.5000000   0.5000000), wk =   0.0246914
        k(    2) = (   0.4750000   0.4750000   0.4750000), wk =   0.0246914
        k(    3) = (   0.4500000   0.4500000   0.4500000), wk =   0.0246914
        k(    4) = (   0.4250000   0.4250000   0.4250000), wk =   0.0246914
        k(    5) = (   0.4000000   0.4000000   0.4000000), wk =   0.0246914
        k(    6) = (   0.3750000   0.3750000   0.3750000), wk =   0.0246914
        k(    7) = (   0.3500000   0.3500000   0.3500000), wk =   0.0246914
        k(    8) = (   0.3250000   0.3250000   0.3250000), wk =   0.0246914
        k(    9) = (   0.3000000   0.3000000   0.3000000), wk =   0.0246914
        k(   10) = (   0.2750000   0.2750000   0.2750000), wk =   0.0246914
        k(   11) = (   0.2500000   0.2500000   0.2500000), wk =   0.0246914
        k(   12) = (   0.2250000   0.2250000   0.2250000), wk =   0.0246914
        k(   13) = (   0.2000000   0.2000000   0.2000000), wk =   0.0246914
        k(   14) = (   0.1750000   0.1750000   0.1750000), wk =   0.0246914
        k(   15) = (   0.1500000   0.1500000   0.1500000), wk =   0.0246914
        k(   16) = (   0.1250000   0.1250000   0.1250000), wk =   0.0246914
        k(   17) = (   0.1000000   0.1000000   0.1000000), wk =   0.0246914
        k(   18) = (   0.0750000   0.0750000   0.0750000), wk =   0.0246914
        k(   19) = (   0.0500000   0.0500000   0.0500000), wk =   0.0246914
        k(   20) = (   0.0250000   0.0250000   0.0250000), wk =   0.0246914
        k(   21) = (   0.0000000   0.0000000   0.0000000), wk =   0.0246914
        k(   22) = (   0.0000000   0.0250000   0.0000000), wk =   0.0246914
        k(   23) = (   0.0000000   0.0500000   0.0000000), wk =   0.0246914
        k(   24) = (   0.0000000   0.0750000   0.0000000), wk =   0.0246914
        k(   25) = (   0.0000000   0.1000000   0.0000000), wk =   0.0246914
        k(   26) = (   0.0000000   0.1250000   0.0000000), wk =   0.0246914
        k(   27) = (   0.0000000   0.1500000   0.0000000), wk =   0.0246914
        k(   28) = (   0.0000000   0.1750000   0.0000000), wk =   0.0246914
        k(   29) = (   0.0000000   0.2000000   0.0000000), wk =   0.0246914
        k(   30) = (   0.0000000   0.2250000   0.0000000), wk =   0.0246914
        k(   31) = (   0.0000000   0.2500000   0.0000000), wk =   0.0246914
        k(   32) = (   0.0000000   0.2750000   0.0000000), wk =   0.0246914
        k(   33) = (   0.0000000   0.3000000   0.0000000), wk =   0.0246914
        k(   34) = (   0.0000000   0.3250000   0.0000000), wk =   0.0246914
        k(   35) = (   0.0000000   0.3500000   0.0000000), wk =   0.0246914
        k(   36) = (   0.0000000   0.3750000   0.0000000), wk =   0.0246914
        k(   37) = (   0.0000000   0.4000000   0.0000000), wk =   0.0246914
        k(   38) = (   0.0000000   0.4250000   0.0000000), wk =   0.0246914
        k(   39) = (   0.0000000   0.4500000   0.0000000), wk =   0.0246914
        k(   40) = (   0.0000000   0.4750000   0.0000000), wk =   0.0246914
        k(   41) = (   0.0000000   0.5000000   0.0000000), wk =   0.0246914
        k(   42) = (   0.0250000   0.5000000   0.0000000), wk =   0.0246914
        k(   43) = (   0.0500000   0.5000000   0.0000000), wk =   0.0246914
        k(   44) = (   0.0750000   0.5000000   0.0000000), wk =   0.0246914
        k(   45) = (   0.1000000   0.5000000   0.0000000), wk =   0.0246914
        k(   46) = (   0.1250000   0.5000000   0.0000000), wk =   0.0246914
        k(   47) = (   0.1500000   0.5000000   0.0000000), wk =   0.0246914
        k(   48) = (   0.1750000   0.5000000   0.0000000), wk =   0.0246914
        k(   49) = (   0.2000000   0.5000000   0.0000000), wk =   0.0246914
        k(   50) = (   0.2250000   0.5000000   0.0000000), wk =   0.0246914
        k(   51) = (   0.2500000   0.5000000   0.0000000), wk =   0.0246914
        k(   52) = (   0.2750000   0.5000000   0.0000000), wk =   0.0246914
        k(   53) = (   0.3000000   0.5000000   0.0000000), wk =   0.0246914
        k(   54) = (   0.3250000   0.5000000   0.0000000), wk =   0.0246914
        k(   55) = (   0.3500000   0.5000000   0.0000000), wk =   0.0246914
        k(   56) = (   0.3750000   0.5000000   0.0000000), wk =   0.0246914
        k(   57) = (   0.4000000   0.5000000   0.0000000), wk =   0.0246914
        k(   58) = (   0.4250000   0.5000000   0.0000000), wk =   0.0246914
        k(   59) = (   0.4500000   0.5000000   0.0000000), wk =   0.0246914
        k(   60) = (   0.4750000   0.5000000   0.0000000), wk =   0.0246914
        k(   61) = (   0.5000000   0.5000000   0.0000000), wk =   0.0246914
        k(   62) = (   0.4750000   0.4750000   0.0000000), wk =   0.0246914
        k(   63) = (   0.4500000   0.4500000   0.0000000), wk =   0.0246914
        k(   64) = (   0.4250000   0.4250000   0.0000000), wk =   0.0246914
        k(   65) = (   0.4000000   0.4000000   0.0000000), wk =   0.0246914
        k(   66) = (   0.3750000   0.3750000   0.0000000), wk =   0.0246914
        k(   67) = (   0.3500000   0.3500000   0.0000000), wk =   0.0246914
        k(   68) = (   0.3250000   0.3250000   0.0000000), wk =   0.0246914
        k(   69) = (   0.3000000   0.3000000   0.0000000), wk =   0.0246914
        k(   70) = (   0.2750000   0.2750000   0.0000000), wk =   0.0246914
        k(   71) = (   0.2500000   0.2500000   0.0000000), wk =   0.0246914
        k(   72) = (   0.2250000   0.2250000   0.0000000), wk =   0.0246914
        k(   73) = (   0.2000000   0.2000000   0.0000000), wk =   0.0246914
        k(   74) = (   0.1750000   0.1750000   0.0000000), wk =   0.0246914
        k(   75) = (   0.1500000   0.1500000   0.0000000), wk =   0.0246914
        k(   76) = (   0.1250000   0.1250000   0.0000000), wk =   0.0246914
        k(   77) = (   0.1000000   0.1000000   0.0000000), wk =   0.0246914
        k(   78) = (   0.0750000   0.0750000   0.0000000), wk =   0.0246914
        k(   79) = (   0.0500000   0.0500000   0.0000000), wk =   0.0246914
        k(   80) = (   0.0250000   0.0250000   0.0000000), wk =   0.0246914
        k(   81) = (   0.0000000   0.0000000   0.0000000), wk =   0.0246914

     Dense  grid:   104943 G-vectors     FFT dimensions: (  60,  60,  60)

     Smooth grid:    18277 G-vectors     FFT dimensions: (  36,  36,  36)

     Dynamical RAM for                 wfc:       0.09 MB

     Dynamical RAM for     wfc (w. buffer):       7.42 MB

     Dynamical RAM for           str. fact:       0.48 MB

     Dynamical RAM for           local pot:       0.00 MB

     Dynamical RAM for          nlocal pot:       0.21 MB

     Dynamical RAM for                qrad:       6.09 MB

     Dynamical RAM for          rho,v,vnew:       0.97 MB

     Dynamical RAM for           G-vectors:       0.61 MB

     Dynamical RAM for          h,s,v(r/c):       0.12 MB

     Dynamical RAM for          <psi|beta>:       0.02 MB

     Dynamical RAM for                 psi:       0.18 MB

     Dynamical RAM for                hpsi:       0.18 MB

     Dynamical RAM for                spsi:       0.18 MB

     Dynamical RAM for      wfcinit/wfcrot:       0.23 MB

     Dynamical RAM for           addusdens:      30.27 MB

     Estimated static dynamical RAM per process >      17.25 MB

     Estimated max dynamical RAM per process >      47.53 MB

     Estimated total dynamical RAM >     475.25 MB

     Check: negative core charge=   -0.000001

     The potential is recalculated from file :
     ./work/pwscf.save/charge-density


     negative rho (up, down):  4.579E-05 0.000E+00
     Starting wfcs are   30 randomized atomic wfcs
     Checking if some PAW data can be deallocated... 
       PAW data deallocated on    8 nodes for type:  1
       PAW data deallocated on    8 nodes for type:  2
       PAW data deallocated on    4 nodes for type:  3

     Band Structure Calculation
     Davidson diagonalization with overlap

     Computing kpt #:     1  of    81
     total cpu time spent up to now is        1.3 secs

     Computing kpt #:     2  of    81
     total cpu time spent up to now is        1.5 secs

     Computing kpt #:     3  of    81
     total cpu time spent up to now is        1.6 secs

     Computing kpt #:     4  of    81
     total cpu time spent up to now is        1.7 secs

     Computing kpt #:     5  of    81
     total cpu time spent up to now is        1.8 secs

     Computing kpt #:     6  of    81
     total cpu time spent up to now is        1.9 secs

     Computing kpt #:     7  of    81
     total cpu time spent up to now is        2.0 secs

     Computing kpt #:     8  of    81
     total cpu time spent up to now is        2.1 secs

     Computing kpt #:     9  of    81
     total cpu time spent up to now is        2.2 secs

     Computing kpt #:    10  of    81
     total cpu time spent up to now is        2.3 secs

     Computing kpt #:    11  of    81
     total cpu time spent up to now is        2.4 secs

     Computing kpt #:    12  of    81
     total cpu time spent up to now is        2.5 secs

     Computing kpt #:    13  of    81
     total cpu time spent up to now is        2.6 secs

     Computing kpt #:    14  of    81
     total cpu time spent up to now is        2.7 secs

     Computing kpt #:    15  of    81
     total cpu time spent up to now is        2.8 secs

     Computing kpt #:    16  of    81
     total cpu time spent up to now is        2.9 secs

     Computing kpt #:    17  of    81
     total cpu time spent up to now is        3.0 secs

     Computing kpt #:    18  of    81
     total cpu time spent up to now is        3.1 secs

     Computing kpt #:    19  of    81
     total cpu time spent up to now is        3.2 secs

     Computing kpt #:    20  of    81
     total cpu time spent up to now is        3.3 secs

     Computing kpt #:    21  of    81
     total cpu time spent up to now is        3.4 secs

     Computing kpt #:    22  of    81
     total cpu time spent up to now is        3.5 secs

     Computing kpt #:    23  of    81
     total cpu time spent up to now is        3.6 secs

     Computing kpt #:    24  of    81
     total cpu time spent up to now is        3.6 secs

     Computing kpt #:    25  of    81
     total cpu time spent up to now is        3.7 secs

     Computing kpt #:    26  of    81
     total cpu time spent up to now is        3.8 secs

     Computing kpt #:    27  of    81
     total cpu time spent up to now is        3.9 secs

     Computing kpt #:    28  of    81
     total cpu time spent up to now is        4.0 secs

     Computing kpt #:    29  of    81
     total cpu time spent up to now is        4.1 secs

     Computing kpt #:    30  of    81
     total cpu time spent up to now is        4.2 secs

     Computing kpt #:    31  of    81
     total cpu time spent up to now is        4.3 secs

     Computing kpt #:    32  of    81
     total cpu time spent up to now is        4.4 secs

     Computing kpt #:    33  of    81
     total cpu time spent up to now is        4.5 secs

     Computing kpt #:    34  of    81
     total cpu time spent up to now is        4.6 secs

     Computing kpt #:    35  of    81
     total cpu time spent up to now is        4.7 secs

     Computing kpt #:    36  of    81
     total cpu time spent up to now is        4.8 secs

     Computing kpt #:    37  of    81
     total cpu time spent up to now is        4.9 secs

     Computing kpt #:    38  of    81
     total cpu time spent up to now is        5.0 secs

     Computing kpt #:    39  of    81
     total cpu time spent up to now is        5.1 secs

     Computing kpt #:    40  of    81
     total cpu time spent up to now is        5.2 secs

     Computing kpt #:    41  of    81
     total cpu time spent up to now is        5.2 secs

     Computing kpt #:    42  of    81
     total cpu time spent up to now is        5.3 secs

     Computing kpt #:    43  of    81
     total cpu time spent up to now is        5.5 secs

     Computing kpt #:    44  of    81
     total cpu time spent up to now is        5.6 secs

     Computing kpt #:    45  of    81
     total cpu time spent up to now is        5.7 secs

     Computing kpt #:    46  of    81
     total cpu time spent up to now is        5.8 secs

     Computing kpt #:    47  of    81
     total cpu time spent up to now is        5.9 secs

     Computing kpt #:    48  of    81
     total cpu time spent up to now is        6.0 secs

     Computing kpt #:    49  of    81
     total cpu time spent up to now is        6.1 secs

     Computing kpt #:    50  of    81
     total cpu time spent up to now is        6.2 secs

     Computing kpt #:    51  of    81
     total cpu time spent up to now is        6.3 secs

     Computing kpt #:    52  of    81
     total cpu time spent up to now is        6.4 secs

     Computing kpt #:    53  of    81
     total cpu time spent up to now is        6.5 secs

     Computing kpt #:    54  of    81
     total cpu time spent up to now is        6.6 secs

     Computing kpt #:    55  of    81
     total cpu time spent up to now is        6.7 secs

     Computing kpt #:    56  of    81
     total cpu time spent up to now is        6.8 secs

     Computing kpt #:    57  of    81
     total cpu time spent up to now is        6.9 secs

     Computing kpt #:    58  of    81
     total cpu time spent up to now is        7.0 secs

     Computing kpt #:    59  of    81
     total cpu time spent up to now is        7.1 secs

     Computing kpt #:    60  of    81
     total cpu time spent up to now is        7.2 secs

     Computing kpt #:    61  of    81
     total cpu time spent up to now is        7.4 secs

     Computing kpt #:    62  of    81
     total cpu time spent up to now is        7.5 secs

     Computing kpt #:    63  of    81
     total cpu time spent up to now is        7.6 secs

     Computing kpt #:    64  of    81
     total cpu time spent up to now is        7.7 secs

     Computing kpt #:    65  of    81
     total cpu time spent up to now is        7.8 secs

     Computing kpt #:    66  of    81
     total cpu time spent up to now is        8.0 secs

     Computing kpt #:    67  of    81
     total cpu time spent up to now is        8.1 secs

     Computing kpt #:    68  of    81
     total cpu time spent up to now is        8.2 secs

     Computing kpt #:    69  of    81
     total cpu time spent up to now is        8.3 secs

     Computing kpt #:    70  of    81
     total cpu time spent up to now is        8.4 secs

     Computing kpt #:    71  of    81
     total cpu time spent up to now is        8.5 secs

     Computing kpt #:    72  of    81
     total cpu time spent up to now is        8.6 secs

     Computing kpt #:    73  of    81
     total cpu time spent up to now is        8.7 secs

     Computing kpt #:    74  of    81
     total cpu time spent up to now is        8.9 secs

     Computing kpt #:    75  of    81
     total cpu time spent up to now is        9.0 secs

     Computing kpt #:    76  of    81
     total cpu time spent up to now is        9.1 secs

     Computing kpt #:    77  of    81
     total cpu time spent up to now is        9.2 secs

     Computing kpt #:    78  of    81
     total cpu time spent up to now is        9.3 secs

     Computing kpt #:    79  of    81
     total cpu time spent up to now is        9.4 secs

     Computing kpt #:    80  of    81
     total cpu time spent up to now is        9.5 secs

     Computing kpt #:    81  of    81
     total cpu time spent up to now is        9.6 secs

     ethr =  9.02E-07,  avg # of iterations = 41.6

     total cpu time spent up to now is        9.6 secs

     End of band structure calculation

          k = 0.5000 0.5000 0.5000 (  2272 PWs)   bands (ev):

   -53.1194 -26.9886 -26.9886 -26.9886 -21.8005  -5.8982  -5.8982  -5.8982
    -4.2109  -4.2109  -4.2109   5.3195   6.0552   6.0552   6.6380   6.6380
     6.6380  10.4446  10.4446  10.4446  14.2185  14.2185  14.2185  17.8423
    18.1378  18.1379

          k = 0.4750 0.4750 0.4750 (  2293 PWs)   bands (ev):

   -53.1195 -26.9884 -26.9884 -26.9884 -21.8009  -5.9231  -5.9030  -5.9030
    -4.2036  -4.2036  -4.1876   5.3377   6.0652   6.0652   6.6272   6.6434
     6.6434  10.4241  10.4241  10.4362  14.2058  14.2073  14.2073  17.8580
    17.8580  17.8726

          k = 0.4500 0.4500 0.4500 (  2296 PWs)   bands (ev):

   -53.1195 -26.9879 -26.9879 -26.9879 -21.8022  -5.9930  -5.9167  -5.9167
    -4.1822  -4.1822  -4.1226   5.3912   6.0951   6.0951   6.5981   6.6601
     6.6601  10.3649  10.3649  10.4112  14.1682  14.1741  14.1741  17.8740
    17.8740  17.9593

          k = 0.4250 0.4250 0.4250 (  2296 PWs)   bands (ev):

   -53.1196 -26.9870 -26.9869 -26.9869 -21.8043  -6.0960  -5.9378  -5.9378
    -4.1490  -4.1490  -4.0288   5.4761   6.1441   6.1441   6.5592   6.6888
     6.6888  10.2730  10.2730  10.3704  14.1072  14.1196  14.1196  17.8184
    17.8185  18.0899

          k = 0.4000 0.4000 0.4000 (  2305 PWs)   bands (ev):

   -53.1196 -26.9858 -26.9856 -26.9856 -21.8072  -6.2194  -5.9642  -5.9642
    -4.1068  -4.1068  -3.9200   5.5844   6.2108   6.2108   6.5255   6.7307
     6.7307  10.1571  10.1571  10.3153  14.0245  14.0446  14.0446  17.6896
    17.6896  18.2451

          k = 0.3750 0.3750 0.3750 (  2299 PWs)   bands (ev):

   -53.1198 -26.9843 -26.9840 -26.9840 -21.8108  -6.3526  -5.9934  -5.9934
    -4.0593  -4.0593  -3.8086   5.7022   6.2932   6.2933   6.5189   6.7875
     6.7875  10.0274  10.0274  10.2476  13.9222  13.9507  13.9507  17.5133
    17.5133  18.4032

          k = 0.3500 0.3500 0.3500 (  2296 PWs)   bands (ev):

   -53.1199 -26.9825 -26.9821 -26.9821 -21.8150  -6.4876  -6.0231  -6.0231
    -4.0100  -4.0100  -3.7045   5.8092   6.3887   6.3887   6.5674   6.8615
     6.8615   9.8937   9.8937  10.1696  13.8021  13.8395  13.8395  17.3016
    17.3016  18.5433

          k = 0.3250 0.3250 0.3250 (  2293 PWs)   bands (ev):

   -53.1200 -26.9804 -26.9800 -26.9800 -21.8198  -6.6186  -6.0513  -6.0513
    -3.9622  -3.9622  -3.6154   5.8912   6.4938   6.4938   6.6917   6.9550
     6.9550   9.7656   9.7656  10.0834  13.6662  13.7130  13.7130  17.0615
    17.0616  18.6504

          k = 0.3000 0.3000 0.3000 (  2281 PWs)   bands (ev):

   -53.1202 -26.9782 -26.9777 -26.9777 -21.8250  -6.7414  -6.0764  -6.0764
    -3.9189  -3.9189  -3.5468   5.9559   6.6045   6.6045   6.8884   7.0700
     7.0700   9.6512   9.6512   9.9917  13.5162  13.5733  13.5733  16.7985
    16.7985  18.7156

          k = 0.2750 0.2750 0.2750 (  2280 PWs)   bands (ev):

   -53.1204 -26.9759 -26.9753 -26.9753 -21.8307  -6.8529  -6.0974  -6.0974
    -3.8824  -3.8824  -3.5024   6.0237   6.7168   6.7168   7.1383   7.2081
     7.2081   9.5580   9.5580   9.8969  13.3541  13.4224  13.4224  16.5177
    16.5177  18.5939

          k = 0.2500 0.2500 0.2500 (  2292 PWs)   bands (ev):

   -53.1205 -26.9734 -26.9728 -26.9728 -21.8366  -6.9512  -6.1134  -6.1134
    -3.8543  -3.8543  -3.4834   6.1099   6.8269   6.8269   7.3691   7.3691
     7.4243   9.4920   9.4920   9.8015  13.1824  13.2623  13.2623  16.2242
    16.2242  18.3763

          k = 0.2250 0.2250 0.2250 (  2277 PWs)   bands (ev):

   -53.1207 -26.9710 -26.9703 -26.9703 -21.8427  -7.0351  -6.1241  -6.1241
    -3.8354  -3.8354  -3.4894   6.2210   6.9311   6.9311   7.5519   7.5519
     7.7345   9.4578   9.4578   9.7077  13.0036  13.0949  13.0949  15.9230
    15.9230  18.1121

          k = 0.2000 0.2000 0.2000 (  2277 PWs)   bands (ev):

   -53.1209 -26.9685 -26.9678 -26.9678 -21.8488  -7.1041  -6.1297  -6.1297
    -3.8258  -3.8258  -3.5176   6.3567   7.0259   7.0259   7.7544   7.7544
     8.0600   9.4582   9.4582   9.6179  12.8208  12.9217  12.9217  15.6194
    15.6194  17.8233

          k = 0.1750 0.1750 0.1750 (  2286 PWs)   bands (ev):

   -53.1210 -26.9662 -26.9655 -26.9655 -21.8549  -7.1586  -6.1305  -6.1305
    -3.8248  -3.8248  -3.5637   6.5118   7.1083   7.1083   7.9736   7.9736
     8.3935   9.4934   9.4934   9.5340  12.6376  12.7439  12.7439  15.3192
    15.3192  17.5249

          k = 0.1500 0.1500 0.1500 (  2289 PWs)   bands (ev):

   -53.1212 -26.9639 -26.9634 -26.9634 -21.8606  -7.1994  -6.1275  -6.1275
    -3.8309  -3.8309  -3.6221   6.6780   7.1765   7.1765   8.2050   8.2050
     8.7277   9.4577   9.5605   9.5605  12.4576  12.5629  12.5629  15.0289
    15.0290  17.2292

          k = 0.1250 0.1250 0.1250 (  2277 PWs)   bands (ev):

   -53.1213 -26.9619 -26.9615 -26.9615 -21.8659  -7.2282  -6.1216  -6.1216
    -3.8420  -3.8420  -3.6867   6.8452   7.2303   7.2303   8.4420   8.4420
     9.0541   9.3905   9.6530   9.6530  12.2847  12.3806  12.3806  14.7561
    14.7562  16.9486

          k = 0.1000 0.1000 0.1000 (  2259 PWs)   bands (ev):

   -53.1214 -26.9601 -26.9598 -26.9598 -21.8706  -7.2470  -6.1140  -6.1140
    -3.8560  -3.8560  -3.7508   7.0022   7.2705   7.2705   8.6749   8.6749
     9.3338   9.3626   9.7614   9.7614  12.1229  12.2007  12.2007  14.5096
    14.5097  16.6955

          k = 0.0750 0.0750 0.0750 (  2283 PWs)   bands (ev):

   -53.1215 -26.9587 -26.9585 -26.9585 -21.8745  -7.2582  -6.1063  -6.1063
    -3.8702  -3.8702  -3.8085   7.1381   7.2991   7.2991   8.8896   8.8896
     9.2886   9.6393   9.8733   9.8733  11.9771  12.0303  12.0303  14.2996
    14.2996  16.4822

          k = 0.0500 0.0500 0.0500 (  2289 PWs)   bands (ev):

   -53.1216 -26.9576 -26.9576 -26.9576 -21.8773  -7.2641  -6.0996  -6.0996
    -3.8824  -3.8824  -3.8541   7.2431   7.3179   7.3179   9.0674   9.0675
     9.2557   9.8660   9.9742   9.9742  11.8556  11.8830  11.8830  14.1375
    14.1376  16.3205

          k = 0.0250 0.0250 0.0250 (  2310 PWs)   bands (ev):

   -53.1216 -26.9570 -26.9570 -26.9570 -21.8791  -7.2667  -6.0951  -6.0951
    -3.8906  -3.8906  -3.8834   7.3094   7.3286   7.3286   9.1868   9.1868
     9.2358  10.0188  10.0467  10.0467  11.7715  11.7789  11.7789  14.0345
    14.0346  16.2195

          k = 0.0000 0.0000 0.0000 (  2301 PWs)   bands (ev):

   -53.1216 -26.9568 -26.9568 -26.9568 -21.8797  -7.2674  -6.0935  -6.0935
    -3.8934  -3.8934  -3.8934   7.3320   7.3320   7.3320   9.2291   9.2291
     9.2291  10.0735  10.0735  10.0735  11.7408  11.7408  11.7408  13.9991
    13.9991  16.1851

          k = 0.0000 0.0250 0.0000 (  2305 PWs)   bands (ev):

   -53.1216 -26.9570 -26.9568 -26.9568 -21.8795  -7.2672  -6.0949  -6.0933
    -3.8930  -3.8930  -3.8889   7.3229   7.3317   7.3317   9.2190   9.2190
     9.2230  10.0504  10.0667  10.0667  11.7415  11.7586  11.7586  13.9993
    14.0226  16.1962

          k = 0.0000 0.0500 0.0000 (  2309 PWs)   bands (ev):

   -53.1216 -26.9577 -26.9567 -26.9567 -21.8789  -7.2667  -6.0986  -6.0925
    -3.8919  -3.8919  -3.8755   7.2958   7.3305   7.3305   9.1891   9.1891
     9.2050   9.9835  10.0479  10.0479  11.7437  11.8102  11.8102  13.9998
    14.0906  16.2300

          k = 0.0000 0.0750 0.0000 (  2293 PWs)   bands (ev):

   -53.1216 -26.9588 -26.9567 -26.9567 -21.8779  -7.2662  -6.1040  -6.0911
    -3.8900  -3.8900  -3.8539   7.2514   7.3287   7.3287   9.1407   9.1407
     9.1758   9.8788  10.0201  10.0201  11.7473  11.8911  11.8911  14.0005
    14.1971  16.2890

          k = 0.0000 0.1000 0.0000 (  2285 PWs)   bands (ev):

   -53.1216 -26.9603 -26.9566 -26.9566 -21.8766  -7.2661  -6.1101  -6.0893
    -3.8874  -3.8874  -3.8249   7.1907   7.3263   7.3263   9.0762   9.0762
     9.1365   9.7449   9.9872   9.9872  11.7524  11.9953  11.9953  14.0014
    14.3336  16.3592

          k = 0.0000 0.1250 0.0000 (  2281 PWs)   bands (ev):

   -53.1215 -26.9621 -26.9565 -26.9565 -21.8749  -7.2672  -6.1155  -6.0871
    -3.8842  -3.8842  -3.7897   7.1152   7.3234   7.3234   8.9984   8.9984
     9.0886   9.5904   9.9521   9.9521  11.7586  12.1168  12.1168  14.0025
    14.4918  16.4642

          k = 0.0000 0.1500 0.0000 (  2281 PWs)   bands (ev):

   -53.1215 -26.9643 -26.9564 -26.9564 -21.8730  -7.2700  -6.1190  -6.0844
    -3.8804  -3.8804  -3.7497   7.0267   7.3201   7.3201   8.9108   8.9109
     9.0337   9.4234   9.9167   9.9167  11.7659  12.2501  12.2501  14.0037
    14.6632  16.5662

          k = 0.0000 0.1750 0.0000 (  2288 PWs)   bands (ev):

   -53.1214 -26.9668 -26.9563 -26.9563 -21.8708  -7.2751  -6.1193  -6.0815
    -3.8762  -3.8762  -3.7062   6.9273   7.3166   7.3166   8.8168   8.8168
     8.9736   9.2509   9.8822   9.8822  11.7740  12.3907  12.3907  14.0049
    14.8414  16.6966

          k = 0.0000 0.2000 0.0000 (  2288 PWs)   bands (ev):

   -53.1214 -26.9695 -26.9562 -26.9562 -21.8684  -7.2828  -6.1156  -6.0783
    -3.8717  -3.8717  -3.6605   6.8193   7.3130   7.3130   8.7195   8.7195
     8.9101   9.0785   9.8491   9.8491  11.7830  12.5347  12.5347  14.0062
    15.0208  16.8468

          k = 0.0000 0.2250 0.0000 (  2284 PWs)   bands (ev):

   -53.1213 -26.9723 -26.9560 -26.9560 -21.8659  -7.2933  -6.1074  -6.0749
    -3.8668  -3.8668  -3.6139   6.7054   7.3096   7.3096   8.6215   8.6215
     8.8450   8.9106   9.8176   9.8177  11.7924  12.6789  12.6789  14.0074
    15.1969  16.9972

          k = 0.0000 0.2500 0.0000 (  2284 PWs)   bands (ev):

   -53.1213 -26.9752 -26.9559 -26.9559 -21.8633  -7.3063  -6.0948  -6.0714
    -3.8619  -3.8619  -3.5676   6.5883   7.3066   7.3066   8.5252   8.5252
     8.7506   8.7800   9.7881   9.7881  11.8021  12.8204  12.8204  14.0086
    15.3662  17.1621

          k = 0.0000 0.2750 0.0000 (  2284 PWs)   bands (ev):

   -53.1212 -26.9780 -26.9558 -26.9558 -21.8608  -7.3214  -6.0782  -6.0679
    -3.8569  -3.8569  -3.5228   6.4710   7.3041   7.3041   8.4325   8.4325
     8.6012   8.7165   9.7605   9.7605  11.8119  12.9565  12.9565  14.0097
    15.5259  17.3080

          k = 0.0000 0.3000 0.0000 (  2300 PWs)   bands (ev):

   -53.1212 -26.9808 -26.9557 -26.9557 -21.8583  -7.3379  -6.0645  -6.0584
    -3.8521  -3.8521  -3.4804   6.3563   7.3023   7.3023   8.3450   8.3450
     8.4642   8.6561   9.7352   9.7353  11.8215  13.0851  13.0851  14.0106
    15.6738  17.5055

          k = 0.0000 0.3250 0.0000 (  2284 PWs)   bands (ev):

   -53.1211 -26.9835 -26.9555 -26.9555 -21.8559  -7.3550  -6.0613  -6.0367
    -3.8474  -3.8474  -3.4412   6.2472   7.3012   7.3012   8.2641   8.2641
     8.3412   8.6000   9.7124   9.7124  11.8307  13.2039  13.2039  14.0116
    15.8081  17.6751

          k = 0.0000 0.3500 0.0000 (  2292 PWs)   bands (ev):

   -53.1211 -26.9860 -26.9554 -26.9554 -21.8537  -7.3718  -6.0583  -6.0142
    -3.8431  -3.8431  -3.4059   6.1464   7.3010   7.3010   8.1910   8.1910
     8.2330   8.5491   9.6922   9.6922  11.8392  13.3112  13.3112  14.0123
    15.9272  17.8362

          k = 0.0000 0.3750 0.0000 (  2292 PWs)   bands (ev):

   -53.1210 -26.9882 -26.9553 -26.9553 -21.8517  -7.3877  -6.0556  -5.9924
    -3.8393  -3.8393  -3.3752   6.0565   7.3016   7.3016   8.1268   8.1268
     8.1405   8.5046   9.6747   9.6747  11.8468  13.4052  13.4052  14.0130
    16.0299  17.9840

          k = 0.0000 0.4000 0.0000 (  2276 PWs)   bands (ev):

   -53.1210 -26.9900 -26.9552 -26.9552 -21.8500  -7.4017  -6.0533  -5.9724
    -3.8360  -3.8360  -3.3494   5.9796   7.3027   7.3027   8.0643   8.0724
     8.0724   8.4672   9.6603   9.6603  11.8533  13.4843  13.4843  14.0136
    16.1152  17.9550

          k = 0.0000 0.4250 0.0000 (  2280 PWs)   bands (ev):

   -53.1209 -26.9915 -26.9551 -26.9551 -21.8487  -7.4133  -6.0515  -5.9556
    -3.8334  -3.8334  -3.3291   5.9178   7.3041   7.3041   8.0046   8.0289
     8.0289   8.4374   9.6489   9.6489  11.8586  13.5472  13.5472  14.0140
    16.1823  18.2196

          k = 0.0000 0.4500 0.0000 (  2280 PWs)   bands (ev):

   -53.1209 -26.9926 -26.9551 -26.9551 -21.8477  -7.4219  -6.0501  -5.9428
    -3.8314  -3.8314  -3.3143   5.8725   7.3055   7.3055   7.9617   7.9970
     7.9970   8.4158   9.6406   9.6407  11.8625  13.5929  13.5929  14.0144
    16.2307  18.2987

          k = 0.0000 0.4750 0.0000 (  2272 PWs)   bands (ev):

   -53.1209 -26.9933 -26.9550 -26.9550 -21.8471  -7.4273  -6.0493  -5.9349
    -3.8302  -3.8302  -3.3054   5.8449   7.3066   7.3066   7.9359   7.9776
     7.9776   8.4027   9.6357   9.6357  11.8648  13.6207  13.6207  14.0146
    16.2599  18.3474

          k = 0.0000 0.5000 0.0000 (  2272 PWs)   bands (ev):

   -53.1209 -26.9935 -26.9550 -26.9550 -21.8469  -7.4291  -6.0490  -5.9322
    -3.8298  -3.8298  -3.3025   5.8356   7.3070   7.3070   7.9273   7.9710
     7.9710   8.3983   9.6340   9.6341  11.8656  13.6300  13.6300  14.0146
    16.2696  18.3638

          k = 0.0250 0.5000 0.0000 (  2272 PWs)   bands (ev):

   -53.1209 -26.9935 -26.9552 -26.9550 -21.8467  -7.4255  -6.0486  -5.9350
    -3.8294  -3.8277  -3.3043   5.8350   7.3024   7.3075   7.7878   7.9676
     8.0779   8.4358   9.6178   9.6219  11.8810  13.6299  13.6299  14.0312
    16.2781  18.3739

          k = 0.0500 0.5000 0.0000 (  2284 PWs)   bands (ev):

   -53.1209 -26.9934 -26.9559 -26.9550 -21.8463  -7.4149  -6.0475  -5.9435
    -3.8281  -3.8216  -3.3099   5.8333   7.2883   7.3092   7.6151   7.9572
     8.1575   8.5432   9.5710   9.5865  11.9256  13.6295  13.6299  14.0790
    16.3037  18.1737

          k = 0.0750 0.5000 0.0000 (  2298 PWs)   bands (ev):

   -53.1209 -26.9934 -26.9570 -26.9550 -21.8457  -7.3973  -6.0458  -5.9573
    -3.8260  -3.8115  -3.3189   5.8305   7.2637   7.3119   7.4381   7.9403
     8.2076   8.6933   9.4993   9.5312  11.9964  13.6288  13.6302  14.1523
    16.3472  18.2029

          k = 0.1000 0.5000 0.0000 (  2298 PWs)   bands (ev):

   -53.1208 -26.9932 -26.9585 -26.9549 -21.8447  -7.3730  -6.0438  -5.9759
    -3.8231  -3.7979  -3.3310   5.8266   7.2270   7.2617   7.3157   7.9173
     8.2488   8.8597   9.4108   9.4600  12.0887  13.6279  13.6318  14.2435
    16.4091  18.2423

          k = 0.1250 0.5000 0.0000 (  2286 PWs)   bands (ev):

   -53.1208 -26.9931 -26.9603 -26.9548 -21.8435  -7.3421  -6.0420  -5.9988
    -3.8194  -3.7812  -3.3459   5.8216   7.0887   7.1765   7.3205   7.8890
     8.2900   9.0293   9.3144   9.3775  12.1976  13.6269  13.6354  14.3441
    16.4902  18.2911

          k = 0.1500 0.5000 0.0000 (  2286 PWs)   bands (ev):

   -53.1207 -26.9929 -26.9624 -26.9547 -21.8422  -7.3050  -6.0408  -6.0251
    -3.8151  -3.7621  -3.3629   5.8156   6.9210   7.1107   7.3264   7.8560
     8.3341   9.1961   9.2185   9.2876  12.3185  13.6258  13.6420  14.4462
    16.5904  18.3484

          k = 0.1750 0.5000 0.0000 (  2284 PWs)   bands (ev):

   -53.1207 -26.9927 -26.9648 -26.9546 -21.8406  -7.2622  -6.0542  -6.0409
    -3.8103  -3.7410  -3.3814   5.8085   6.7599   7.0291   7.3333   7.8194
     8.3815   9.1301   9.1937   9.3565  12.4473  13.6247  13.6525  14.5435
    16.7086  18.4126

          k = 0.2000 0.5000 0.0000 (  2282 PWs)   bands (ev):

   -53.1206 -26.9925 -26.9674 -26.9545 -21.8389  -7.2140  -6.0851  -6.0429
    -3.8051  -3.7187  -3.4008   5.8001   6.6066   6.9326   7.3411   7.7800
     8.4318   9.0540   9.0986   9.5081  12.5803  13.6235  13.6677  14.6319
    16.8423  18.4827

          k = 0.2250 0.5000 0.0000 (  2280 PWs)   bands (ev):

   -53.1206 -26.9923 -26.9701 -26.9543 -21.8372  -7.1609  -6.1170  -6.0475
    -3.7996  -3.6957  -3.4205   5.7903   6.4621   6.8237   7.3498   7.7391
     8.4841   8.9924   9.0045   9.6491  12.7144  13.6225  13.6881  14.7093
    16.9879  18.5571

          k = 0.2500 0.5000 0.0000 (  2270 PWs)   bands (ev):

   -53.1205 -26.9921 -26.9729 -26.9542 -21.8354  -7.1036  -6.1491  -6.0555
    -3.7940  -3.6725  -3.4396   5.7785   6.3273   6.7066   7.3593   7.6974
     8.5374   8.9132   8.9456   9.7780  12.8468  13.6215  13.7140  14.7752
    17.1409  18.6340

          k = 0.2750 0.5000 0.0000 (  2278 PWs)   bands (ev):

   -53.1205 -26.9918 -26.9757 -26.9541 -21.8336  -7.0426  -6.1807  -6.0675
    -3.7883  -3.6498  -3.4578   5.7643   6.2028   6.5865   7.3694   7.6562
     8.5904   8.8262   8.9121   9.8938  12.9749  13.6205  13.7447  14.8301
    17.2962  18.7118

          k = 0.3000 0.5000 0.0000 (  2274 PWs)   bands (ev):

   -53.1204 -26.9916 -26.9784 -26.9539 -21.8318  -6.9787  -6.2110  -6.0840
    -3.7827  -3.6280  -3.4744   5.7467   6.0895   6.4691   7.3799   7.6164
     8.6419   8.7447   8.8900   9.9961  13.0965  13.6197  13.7797  14.8752
    17.4489  18.7888

          k = 0.3250 0.5000 0.0000 (  2282 PWs)   bands (ev):

   -53.1203 -26.9914 -26.9809 -26.9538 -21.8301  -6.9125  -6.2394  -6.1056
    -3.7775  -3.6077  -3.4891   5.7248   5.9880   6.3603   7.3907   7.5789
     8.6698   8.6907   8.8767  10.0846  13.2093  13.6190  13.8175  14.9116
    17.5943  18.8627

          k = 0.3500 0.5000 0.0000 (  2278 PWs)   bands (ev):

   -53.1203 -26.9912 -26.9833 -26.9537 -21.8286  -6.8449  -6.2652  -6.1324
    -3.7726  -3.5891  -3.5016   5.6980   5.8989   6.2650   7.4014   7.5446
     8.6025   8.7357   8.8700  10.1595  13.3115  13.6184  13.8564  14.9408
    17.7283  18.9319

          k = 0.3750 0.5000 0.0000 (  2282 PWs)   bands (ev):

   -53.1203 -26.9911 -26.9854 -26.9536 -21.8272  -6.7768  -6.2879  -6.1646
    -3.7682  -3.5728  -3.5119   5.6663   5.8225   6.1870   7.4117   7.5142
     8.5435   8.7757   8.8677  10.2212  13.4012  13.6180  13.8944  14.9637
    17.8475  18.9939

          k = 0.4000 0.5000 0.0000 (  2272 PWs)   bands (ev):

   -53.1202 -26.9909 -26.9872 -26.9535 -21.8260  -6.7094  -6.3071  -6.2016
    -3.7645  -3.5590  -3.5201   5.6318   5.7595   6.1275   7.4211   7.4884
     8.4938   8.8098   8.8680  10.2705  13.4770  13.6176  13.9294  14.9814
    17.9487  19.0471

          k = 0.4250 0.5000 0.0000 (  2276 PWs)   bands (ev):

   -53.1202 -26.9908 -26.9887 -26.9535 -21.8250  -6.6440  -6.3224  -6.2428
    -3.7615  -3.5480  -3.5261   5.5982   5.7101   6.0852   7.4291   7.4678
     8.4541   8.8372   8.8697  10.3078  13.5374  13.6174  13.9592  14.9944
    18.0296  19.0915

          k = 0.4500 0.5000 0.0000 (  2268 PWs)   bands (ev):

   -53.1202 -26.9907 -26.9898 -26.9534 -21.8243  -6.5835  -6.3336  -6.2857
    -3.7592  -3.5400  -3.5303   5.5700   5.6746   6.0578   7.4353   7.4527
     8.4251   8.8573   8.8716  10.3340  13.5814  13.6172  13.9820  15.0033
    18.0887  18.8552

          k = 0.4750 0.5000 0.0000 (  2272 PWs)   bands (ev):

   -53.1202 -26.9907 -26.9904 -26.9534 -21.8239  -6.5341  -6.3404  -6.3244
    -3.7579  -3.5351  -3.5327   5.5514   5.6532   6.0425   7.4392   7.4436
     8.4075   8.8695   8.8731  10.3495  13.6081  13.6171  13.9963  15.0085
    18.1246  18.8360

          k = 0.5000 0.5000 0.0000 (  2296 PWs)   bands (ev):

   -53.1202 -26.9907 -26.9907 -26.9534 -21.8238  -6.5123  -6.3426  -6.3426
    -3.7575  -3.5335  -3.5335   5.5449   5.6460   6.0376   7.4405   7.4405
     8.4016   8.8736   8.8736  10.3546  13.6170  13.6170  14.0011  15.0101
    18.1366  18.8295

          k = 0.4750 0.4750 0.0000 (  2272 PWs)   bands (ev):

   -53.1202 -26.9904 -26.9904 -26.9534 -21.8241  -6.5519  -6.3414  -6.3070
    -3.7583  -3.5355  -3.5332   5.5577   5.6606   6.0473   7.4367   7.4479
     8.4134   8.8633   8.8747  10.3444  13.6068  13.6095  13.9913  15.0067
    18.1126  18.8417

          k = 0.4500 0.4500 0.0000 (  2280 PWs)   bands (ev):

   -53.1202 -26.9899 -26.9898 -26.9534 -21.8249  -6.6287  -6.3376  -6.2419
    -3.7610  -3.5416  -3.5321   5.5930   5.7071   6.0761   7.4259   7.4699
     8.4478   8.8340   8.8782  10.3144  13.5761  13.5869  13.9621  14.9965
    18.0414  18.8686

          k = 0.4250 0.4250 0.0000 (  2286 PWs)   bands (ev):

   -53.1202 -26.9889 -26.9888 -26.9536 -21.8264  -6.7128  -6.3313  -6.1773
    -3.7654  -3.5515  -3.5302   5.6437   5.7907   6.1233   7.4102   7.5064
     8.5027   8.7899   8.8842  10.2660  13.5258  13.5493  13.9140  14.9792
    17.9256  18.8698

          k = 0.4000 0.4000 0.0000 (  2280 PWs)   bands (ev):

   -53.1203 -26.9876 -26.9874 -26.9537 -21.8283  -6.7962  -6.3226  -6.1213
    -3.7714  -3.5651  -3.5276   5.7064   5.9126   6.1878   7.3917   7.5572
     8.5749   8.7376   8.8935  10.2016  13.4571  13.4969  13.8477  14.9547
    17.7690  18.7997

          k = 0.3750 0.3750 0.0000 (  2270 PWs)   bands (ev):

   -53.1204 -26.9860 -26.9857 -26.9538 -21.8308  -6.8752  -6.3117  -6.0769
    -3.7788  -3.5821  -3.5247   5.7807   6.0696   6.2681   7.3727   7.6219
     8.6613   8.6849   8.9068  10.1244  13.3714  13.4301  13.7643  14.9230
    17.5761  18.6782

          k = 0.3500 0.3500 0.0000 (  2276 PWs)   bands (ev):

   -53.1205 -26.9841 -26.9837 -26.9540 -21.8338  -6.9479  -6.2987  -6.0453
    -3.7873  -3.6022  -3.5224   5.8668   6.2574   6.3618   7.3549   7.7000
     8.6402   8.7589   8.9249  10.0379  13.2708  13.3491  13.6653  14.8837
    17.3518  18.5273

          k = 0.3250 0.3250 0.0000 (  2268 PWs)   bands (ev):

   -53.1206 -26.9819 -26.9814 -26.9543 -21.8372  -7.0130  -6.2837  -6.0262
    -3.7968  -3.6249  -3.5221   5.9642   6.4663   6.4716   7.3393   7.7908
     8.6115   8.8654   8.9490   9.9462  13.1573  13.2546  13.5524  14.8368
    17.1011  18.3564

          k = 0.3000 0.3000 0.0000 (  2274 PWs)   bands (ev):

   -53.1207 -26.9795 -26.9789 -26.9545 -21.8410  -7.0696  -6.2672  -6.0184
    -3.8069  -3.6498  -3.5258   6.0720   6.5783   6.7080   7.3268   7.8936
     8.6055   8.9782   8.9799   9.8539  13.0332  13.1473  13.4273  14.7824
    16.8289  18.1701

          k = 0.2750 0.2750 0.0000 (  2280 PWs)   bands (ev):

   -53.1208 -26.9770 -26.9763 -26.9548 -21.8451  -7.1176  -6.2492  -6.0199
    -3.8175  -3.6763  -3.5352   6.1891   6.6939   6.9617   7.3175   8.0074
     8.6279   9.0187   9.0954   9.7656  12.9010  13.0281  13.2916  14.7206
    16.5402  17.9717

          k = 0.2500 0.2500 0.0000 (  2286 PWs)   bands (ev):

   -53.1209 -26.9744 -26.9737 -26.9550 -21.8494  -7.1570  -6.2303  -6.0281
    -3.8282  -3.7039  -3.5519   6.3142   6.8087   7.2279   7.3114   8.1307
     8.6821   9.0653   9.2151   9.6866  12.7631  12.8984  13.1469  14.6519
    16.2399  17.7638

          k = 0.2250 0.2250 0.0000 (  2286 PWs)   bands (ev):

   -53.1210 -26.9717 -26.9711 -26.9553 -21.8538  -7.1885  -6.2107  -6.0404
    -3.8387  -3.7320  -3.5769   6.4457   6.9183   7.3084   7.5011   8.2622
     8.7695   9.1180   9.3354   9.6233  12.6222  12.7599  12.9946  14.5769
    15.9332  17.5495

          k = 0.2000 0.2000 0.0000 (  2293 PWs)   bands (ev):

   -53.1211 -26.9691 -26.9685 -26.9556 -21.8583  -7.2127  -6.1911  -6.0543
    -3.8489  -3.7598  -3.6101   6.5815   7.0182   7.3080   7.7756   8.3999
     8.8894   9.1710   9.4546   9.5849  12.4810  12.6146  12.8357  14.4968
    15.6252  17.3311

          k = 0.1750 0.1750 0.0000 (  2281 PWs)   bands (ev):

   -53.1212 -26.9665 -26.9660 -26.9558 -21.8626  -7.2308  -6.1718  -6.0676
    -3.8584  -3.7868  -3.6505   6.7187   7.1050   7.3098   8.0456   8.5411
     9.0387   9.2131   9.5707   9.5839  12.3422  12.4655  12.6714  14.4133
    15.3218  17.1152

          k = 0.1500 0.1500 0.0000 (  2277 PWs)   bands (ev):

   -53.1213 -26.9642 -26.9637 -26.9560 -21.8666  -7.2438  -6.1535  -6.0788
    -3.8671  -3.8121  -3.6961   6.8537   7.1765   7.3130   8.3051   8.6826
     9.2118   9.2345   9.6285   9.6818  12.2087  12.3159  12.5031  14.3285
    15.0294  16.9049

          k = 0.1250 0.1250 0.0000 (  2269 PWs)   bands (ev):

   -53.1214 -26.9620 -26.9617 -26.9562 -21.8703  -7.2528  -6.1367  -6.0869
    -3.8748  -3.8351  -3.7439   6.9817   7.2322   7.3172   8.5480   8.8204
     9.2388   9.4000   9.7099   9.7856  12.0841  12.1705  12.3331  14.2453
    14.7555  16.7142

          k = 0.1000 0.1000 0.0000 (  2285 PWs)   bands (ev):

   -53.1215 -26.9602 -26.9600 -26.9564 -21.8736  -7.2590  -6.1220  -6.0917
    -3.8813  -3.8551  -3.7905   7.0974   7.2731   7.3216   8.7677   8.9490
     9.2363   9.5920   9.8095   9.8791  11.9719  12.0349  12.1654  14.1675
    14.5087  16.5341

          k = 0.0750 0.0750 0.0000 (  2287 PWs)   bands (ev):

   -53.1216 -26.9587 -26.9586 -26.9566 -21.8762  -7.2630  -6.1099  -6.0938
    -3.8865  -3.8714  -3.8321   7.1951   7.3013   7.3258   8.9559   9.0618
     9.2329   9.7738   9.9097   9.9588  11.8768  11.9162  12.0073  14.0993
    14.2987  16.3874

          k = 0.0500 0.0500 0.0000 (  2293 PWs)   bands (ev):

   -53.1216 -26.9576 -26.9576 -26.9567 -21.8781  -7.2656  -6.1009  -6.0941
    -3.8903  -3.8835  -3.8650   7.2695   7.3192   7.3291   9.1026   9.1512
     9.2305   9.9282   9.9953  10.0205  11.8034  11.8224  11.8713  14.0456
    14.1370  16.2750

          k = 0.0250 0.0250 0.0000 (  2307 PWs)   bands (ev):

   -53.1216 -26.9570 -26.9570 -26.9568 -21.8793  -7.2670  -6.0954  -6.0938
    -3.8926  -3.8909  -3.8861   7.3161   7.3290   7.3313   9.1966   9.2090
     9.2294  10.0348  10.0530  10.0599  11.7568  11.7618  11.7758  14.0111
    14.0344  16.2082

          k = 0.0000 0.0000 0.0000 (  2301 PWs)   bands (ev):

   -53.1216 -26.9568 -26.9568 -26.9568 -21.8797  -7.2674  -6.0935  -6.0935
    -3.8934  -3.8934  -3.8934   7.3320   7.3320   7.3320   9.2291   9.2291
     9.2291  10.0735  10.0735  10.0735  11.7408  11.7408  11.7408  13.9991
    13.9992  16.1851

     Writing all to output data dir ./work/pwscf.save/

     init_run     :      0.68s CPU      0.73s WALL (       1 calls)
     electrons    :      7.89s CPU      8.31s WALL (       1 calls)

     Called by init_run:
     wfcinit      :      0.00s CPU      0.00s WALL (       1 calls)
     wfcinit:atom :      0.01s CPU      0.01s WALL (      81 calls)
     wfcinit:wfcr :      0.35s CPU      0.37s WALL (      81 calls)
     potinit      :      0.22s CPU      0.25s WALL (       1 calls)
     hinit0       :      0.37s CPU      0.38s WALL (       1 calls)

     Called by electrons:
     c_bands      :      7.89s CPU      8.31s WALL (       1 calls)
     v_of_rho     :      0.00s CPU      0.01s WALL (       1 calls)
     v_h          :      0.00s CPU      0.00s WALL (       1 calls)
     v_xc         :      0.00s CPU      0.01s WALL (       1 calls)
     newd         :      0.04s CPU      0.05s WALL (       1 calls)
     PAW_pot      :      0.05s CPU      0.05s WALL (       1 calls)

     Called by c_bands:
     init_us_2    :      0.01s CPU      0.01s WALL (      81 calls)
     init_us_2:cp :      0.01s CPU      0.01s WALL (      81 calls)
     cegterg      :      7.45s CPU      7.54s WALL (     204 calls)

     Called by sum_band:

     Called by *egterg:
     cdiaghg      :      1.60s CPU      1.62s WALL (    3452 calls)
     cegterg:over :      0.54s CPU      0.54s WALL (    3371 calls)
     cegterg:upda :      0.14s CPU      0.14s WALL (    3371 calls)
     cegterg:last :      0.27s CPU      0.28s WALL (    1447 calls)
     h_psi        :      4.66s CPU      4.73s WALL (    3656 calls)
     s_psi        :      0.15s CPU      0.15s WALL (    3656 calls)
     g_psi        :      0.03s CPU      0.03s WALL (    3371 calls)

     Called by h_psi:
     h_psi:calbec :      0.32s CPU      0.33s WALL (    3656 calls)
     vloc_psi     :      4.14s CPU      4.20s WALL (    3656 calls)
     add_vuspsi   :      0.18s CPU      0.18s WALL (    3656 calls)

     General routines
     calbec       :      0.32s CPU      0.33s WALL (    3656 calls)
     fft          :      0.27s CPU      0.28s WALL (      13 calls)
     ffts         :      0.17s CPU      0.17s WALL (       1 calls)
     fftw         :      3.87s CPU      3.93s WALL (   81076 calls)
     interpolate  :      0.17s CPU      0.17s WALL (       1 calls)

     Parallel routines

     PAW routines
     PAW_pot      :      0.05s CPU      0.05s WALL (       1 calls)

     PWSCF        :      8.93s CPU     10.42s WALL


   This run was terminated on:  12:18:34  22Sep2023            

=------------------------------------------------------------------------------=
   JOB DONE.
=------------------------------------------------------------------------------=
