<UPF version="2.0.1">
  <PP_INFO>
    Generated using "atomic" code by A. Dal Corso  v.7.2
    Author: ADC
    Generation date: 20Sep2023
    Pseudopotential type: PAW
    Element: Be
    Functional:  SLA  PW   PBX  PBC
    Suggested minimum cutoff for wavefunctions:  30. Ry
    Suggested minimum cutoff for charge density: 197. Ry
    The Pseudo was generated with a Fully-Relativistic Calculation
    L component and cutoff radius for Local Potential:  2   1.4000
    Pseudopotential contains additional information for spin-orbit calculations.
    Valence configuration: 
    nl pn  l   occ       Rcut    Rcut US       E pseu
    2S  1  0  2.00      1.400      2.000    -0.412307
    2P  2  1  0.00      1.800      2.000    -0.148393
    2P  2  1  0.00      1.800      2.000    -0.148335
    Generation configuration:
    2S  1  0  2.00      1.400      2.000    -0.412305
    2S  2  0  0.00      1.400      2.000     6.500000
    2P  2  1  0.00      1.800      2.000    -0.148395
    2P  2  1  0.00      1.800      2.000    -0.148334
    2P  2  1  0.00      1.800      2.000     6.300000
    2P  2  1  0.00      1.800      2.000     6.300000
    3D  3  2 -2.00      1.400      1.400     0.300000
    3D  3  2  0.00      1.400      1.400     0.300000
    Pseudization used: troullier-martins
    <PP_INPUTFILE>
@input
title='Be',
zed=4.0,
rel=2,
config='1s2 2s2.0 2p0.0 3d-2',
iswitch=3,
dft='PBE'
/
@inputp
lpaw=.true.,
pseudotype=3,
file_pseudopw='Be.rel-pbe-n-kjpaw_psl.0.2.UPF',
author='ADC',
lloc=2,
rcloc=1.2,
which_augfun='PSQ',
rmatch_augfun=1.3,
nlcc=.true.,
new_core_ps=.true.,
rcore=1.3,
tm=.true.
/
5
2S  1  0  2.00  0.00  1.40  2.00  0.0
2S  2  0  0.00  6.50  1.40  2.00  0.0
2P  2  1  0.00  0.00  1.80  2.00  0.0
2P  2  1  0.00  6.30  1.80  2.00  0.0
3D  3  2 -2.00  0.30  1.40  1.40  0.0
    </PP_INPUTFILE>
  </PP_INFO>
    <!-- END OF HUMAN READABLE SECTION -->
  <PP_HEADER generated="Generated using 'atomic' code by A. Dal Corso  v.7.2" author="ADC" date="20Sep2023" comment="" element="Be" pseudo_type="PAW" relativistic="full" is_ultrasoft="true" is_paw="true" is_coulomb="false" has_so="true" has_wfc="true" has_gipaw="false" paw_as_gipaw="false" core_correction="true" functional=" SLA  PW   PBX  PBC" z_valence="2.0000000000000000" total_psenergy="-6.5440291887326296" wfc_cutoff="30.054026872506054" rho_cutoff="197.29550078789711" l_max="1" l_max_rho="2" l_local="2" mesh_size="1041" number_of_wfc="3" number_of_proj="6"/>
  <PP_MESH mesh="1041" dx="1.2500000000000001E-002" xmin="-7.0000000000000000" rmax="100.00000000000000" zmesh="4.0000000000000000">
    <PP_R>
   2.279704913886291E-04   2.308380071672556E-04   2.337415918541455E-04
   2.366816991403135E-04   2.396587884235050E-04   2.426733248799772E-04
   2.457257795371847E-04   2.488166293473778E-04   2.519463572621276E-04
   2.551154523077886E-04   2.583244096619093E-04   2.615737307306046E-04
   2.648639232269025E-04   2.681955012500742E-04   2.715689853659645E-04
   2.749849026883296E-04   2.784437869612008E-04   2.819461786422831E-04
   2.854926249874019E-04   2.890836801360144E-04   2.927199051977936E-04
   2.964018683403032E-04   3.001301448777752E-04   3.039053173610037E-04
   3.077279756683702E-04   3.115987170980124E-04   3.155181464611536E-04
   3.194868761766061E-04   3.235055263664620E-04   3.275747249529900E-04
   3.316951077567479E-04   3.358673185959317E-04   3.400920093869735E-04
   3.443698402464043E-04   3.487014795939997E-04   3.530876042572204E-04
   3.575288995769686E-04   3.620260595146739E-04   3.665797867607258E-04
   3.711907928442717E-04   3.758597982443931E-04   3.805875325026829E-04
   3.853747343372376E-04   3.902221517580831E-04   3.951305421840543E-04
   4.001006725611411E-04   4.051333194823267E-04   4.102292693089315E-04
   4.153893182934835E-04   4.206142727041353E-04   4.259049489506435E-04
   4.312621737119356E-04   4.366867840652799E-04   4.421796276170802E-04
   4.477415626353174E-04   4.533734581836538E-04   4.590761942572268E-04
   4.648506619201503E-04   4.706977634447443E-04   4.766184124525191E-04
   4.826135340569273E-04   4.886840650079168E-04   4.948309538382992E-04
   5.010551610119598E-04   5.073576590739335E-04   5.137394328023647E-04
   5.202014793623823E-04   5.267448084619085E-04   5.333704425094270E-04
   5.400794167737386E-04   5.468727795457213E-04   5.537515923021292E-04
   5.607169298714508E-04   5.677698806018517E-04   5.749115465312340E-04
   5.821430435594284E-04   5.894655016225582E-04   5.968800648695934E-04
   6.043878918411259E-04   6.119901556503958E-04   6.196880441665896E-04
   6.274827602004496E-04   6.353755216922146E-04   6.433675619019250E-04
   6.514601296021246E-04   6.596544892729804E-04   6.679519212998626E-04
   6.763537221734067E-04   6.848612046920921E-04   6.934756981673722E-04
   7.021985486313782E-04   7.110311190472419E-04   7.199747895220608E-04
   7.290309575225419E-04   7.382010380933617E-04   7.474864640782651E-04
   7.568886863439538E-04   7.664091740067858E-04   7.760494146623272E-04
   7.858109146177951E-04   7.956951991274167E-04   8.057038126307566E-04
   8.158383189940371E-04   8.261003017544955E-04   8.364913643678180E-04
   8.470131304586779E-04   8.576672440744336E-04   8.684553699420134E-04
   8.793791937280321E-04   8.904404223021824E-04   9.016407840039326E-04
   9.129820289125859E-04   9.244659291207330E-04   9.360942790111451E-04
   9.478688955371520E-04   9.597916185065409E-04   9.718643108690326E-04
   9.840888590073708E-04   9.964671730320726E-04   1.009001187079890E-03
   1.021692859616017E-03   1.034544173740109E-03   1.047557137496145E-03
   1.060733784186185E-03   1.074076172688085E-03   1.087586387777192E-03
   1.101266540452102E-03   1.115118768264500E-03   1.129145235653166E-03
   1.143348134282168E-03   1.157729683383311E-03   1.172292130102903E-03
   1.187037749852869E-03   1.201968846666296E-03   1.217087753557441E-03
   1.232396832886263E-03   1.247898476727554E-03   1.263595107244704E-03
   1.279489177068163E-03   1.295583169678681E-03   1.311879599795346E-03
   1.328381013768519E-03   1.345089989977705E-03   1.362009139234431E-03
   1.379141105190193E-03   1.396488564749525E-03   1.414054228488277E-03
   1.431840841077146E-03   1.449851181710535E-03   1.468088064540813E-03
   1.486554339118024E-03   1.505252890835140E-03   1.524186641378909E-03
   1.543358549186375E-03   1.562771609907140E-03   1.582428856871437E-03
   1.602333361564096E-03   1.622488234104472E-03   1.642896623732403E-03
   1.663561719300293E-03   1.684486749771367E-03   1.705674984724207E-03
   1.727129734863633E-03   1.748854352538003E-03   1.770852232263031E-03
   1.793126811252175E-03   1.815681569953723E-03   1.838520032594609E-03
   1.861645767731085E-03   1.885062388806319E-03   1.908773554714990E-03
   1.932782970375018E-03   1.957094387306443E-03   1.981711604217624E-03
   2.006638467598790E-03   2.031878872323053E-03   2.057436762255008E-03
   2.083316130866952E-03   2.109521021862883E-03   2.136055529810337E-03
   2.162923800780159E-03   2.190130032994357E-03   2.217678477482065E-03
   2.245573438743779E-03   2.273819275423956E-03   2.302420400992035E-03
   2.331381284432082E-03   2.360706450941053E-03   2.390400482635876E-03
   2.420468019269423E-03   2.450913758955457E-03   2.481742458902753E-03
   2.512958936158396E-03   2.544568068360467E-03   2.576574794500187E-03
   2.608984115693626E-03   2.641801095963164E-03   2.675030863028732E-03
   2.708678609109038E-03   2.742749591732872E-03   2.777249134560577E-03
   2.812182628215916E-03   2.847555531128344E-03   2.883373370385905E-03
   2.919641742598863E-03   2.956366314774154E-03   2.993552825200905E-03
   3.031207084347025E-03   3.069334975767109E-03   3.107942457021773E-03
   3.147035560608500E-03   3.186620394904267E-03   3.226703145119968E-03
   3.267290074266870E-03   3.308387524135235E-03   3.350001916285207E-03
   3.392139753050233E-03   3.434807618553036E-03   3.478012179734405E-03
   3.521760187394934E-03   3.566058477249814E-03   3.610913970996970E-03
   3.656333677398556E-03   3.702324693376100E-03   3.748894205119429E-03
   3.796049489209486E-03   3.843797913755358E-03   3.892146939545523E-03
   3.941104121213622E-03   3.990677108418906E-03   4.040873647041469E-03
   4.091701580392607E-03   4.143168850440314E-03   4.195283499050240E-03
   4.248053669242271E-03   4.301487606462846E-03   4.355593659873379E-03
   4.410380283654791E-03   4.465856038328509E-03   4.522029592094078E-03
   4.578909722183545E-03   4.636505316232971E-03   4.694825373671102E-03
   4.753879007125564E-03   4.813675443846733E-03   4.874224027149499E-03
   4.935534217873195E-03   4.997615595859858E-03   5.060477861451098E-03
   5.124130837003815E-03   5.188584468424936E-03   5.253848826725508E-03
   5.319934109594294E-03   5.386850642991193E-03   5.454608882760693E-03
   5.523219416265611E-03   5.592692964041400E-03   5.663040381471243E-03
   5.734272660482233E-03   5.806400931262894E-03   5.879436464002277E-03
   5.953390670650970E-03   6.028275106704219E-03   6.104101473007509E-03
   6.180881617584850E-03   6.258627537490037E-03   6.337351380681236E-03
   6.417065447919108E-03   6.497782194688837E-03   6.579514233146328E-03
   6.662274334088871E-03   6.746075428950621E-03   6.830930611823142E-03
   6.916853141501395E-03   7.003856443555456E-03   7.091954112428275E-03
   7.181159913559858E-03   7.271487785538119E-03   7.362951842276822E-03
   7.455566375220928E-03   7.549345855579625E-03   7.644304936587524E-03
   7.740458455794223E-03   7.837821437382722E-03   7.936409094516988E-03
   8.036236831719017E-03   8.137320247275858E-03   8.239675135676841E-03
   8.343317490081520E-03   8.448263504818639E-03   8.554529577916508E-03
   8.662132313665256E-03   8.771088525211260E-03   8.881415237184241E-03
   8.993129688357417E-03   9.106249334341059E-03   9.220791850310004E-03
   9.336775133765405E-03   9.454217307331271E-03   9.573136721586165E-03
   9.693551957930502E-03   9.815481831489954E-03   9.938945394055329E-03
   1.006396193705946E-02   1.019055099459156E-02   1.031873234644939E-02
   1.044852602122998E-02   1.057995229945908E-02   1.071303171676005E-02
   1.084778506706259E-02   1.098423340585186E-02   1.112239805345838E-02
   1.126230059838946E-02   1.140396290070235E-02   1.154740709542003E-02
   1.169265559598975E-02   1.183973109778523E-02   1.198865658165287E-02
   1.213945531750249E-02   1.229215086794340E-02   1.244676709196599E-02
   1.260332814866984E-02   1.276185850103860E-02   1.292238291976235E-02
   1.308492648710810E-02   1.324951460083895E-02   1.341617297818253E-02
   1.358492765984937E-02   1.375580501410181E-02   1.392883174087410E-02
   1.410403487594434E-02   1.428144179515882E-02   1.446108021870962E-02
   1.464297821546589E-02   1.482716420735968E-02   1.501366697382699E-02
   1.520251565630449E-02   1.539373976278306E-02   1.558736917241836E-02
   1.578343414019959E-02   1.598196530167689E-02   1.618299367774814E-02
   1.638655067950609E-02   1.659266811314641E-02   1.680137818493744E-02
   1.701271350625255E-02   1.722670709866565E-02   1.744339239911092E-02
   1.766280326510741E-02   1.788497398004930E-02   1.810993925856286E-02
   1.833773425193053E-02   1.856839455358348E-02   1.880195620466311E-02
   1.903845569965258E-02   1.927792999207918E-02   1.952041650028829E-02
   1.976595311329017E-02   2.001457819668015E-02   2.026633059863331E-02
   2.052124965597470E-02   2.077937520032564E-02   2.104074756432760E-02
   2.130540758794422E-02   2.157339662484262E-02   2.184475654885510E-02
   2.211952976052183E-02   2.239775919371618E-02   2.267948832235314E-02
   2.296476116718222E-02   2.325362230266587E-02   2.354611686394417E-02
   2.384229055388741E-02   2.414218965023722E-02   2.444586101283751E-02
   2.475335209095657E-02   2.506471093070094E-02   2.537998618252277E-02
   2.569922710882161E-02   2.602248359164166E-02   2.634980614046608E-02
   2.668124590010905E-02   2.701685465870733E-02   2.735668485581225E-02
   2.770078959058349E-02   2.804922263008593E-02   2.840203841769094E-02
   2.875929208158311E-02   2.912103944337426E-02   2.948733702682564E-02
   2.985824206667990E-02   3.023381251760417E-02   3.061410706324549E-02
   3.099918512540032E-02   3.138910687329933E-02   3.178393323300890E-02
   3.218372589695106E-02   3.258854733354292E-02   3.299846079695757E-02
   3.341353033700763E-02   3.383382080915318E-02   3.425939788463562E-02
   3.469032806073882E-02   3.512667867117954E-02   3.556851789662842E-02
   3.601591477536332E-02   3.646893921405685E-02   3.692766199869921E-02
   3.739215480565878E-02   3.786249021288167E-02   3.833874171123212E-02
   3.882098371597575E-02   3.930929157840692E-02   3.980374159762259E-02
   4.030441103244422E-02   4.081137811348960E-02   4.132472205539664E-02
   4.184452306920064E-02   4.237086237486755E-02   4.290382221398471E-02
   4.344348586261128E-02   4.398993764429038E-02   4.454326294322462E-02
   4.510354821761772E-02   4.567088101318369E-02   4.624534997682607E-02
   4.682704487048926E-02   4.741605658518383E-02   4.801247715518855E-02
   4.861639977243092E-02   4.922791880104851E-02   4.984712979213379E-02
   5.047412949866387E-02   5.110901589061852E-02   5.175188817028820E-02
   5.240284678777445E-02   5.306199345668577E-02   5.372943117003016E-02
   5.440526421630825E-02   5.508959819580850E-02   5.578254003710745E-02
   5.648419801377772E-02   5.719468176130563E-02   5.791410229422222E-02
   5.864257202344945E-02   5.938020477386453E-02   6.012711580208555E-02
   6.088342181448020E-02   6.164924098540165E-02   6.242469297565343E-02
   6.320989895118662E-02   6.400498160203252E-02   6.481006516147290E-02
   6.562527542545185E-02   6.645073977223169E-02   6.728658718229596E-02
   6.813294825850316E-02   6.898995524649330E-02   6.985774205535186E-02
   7.073644427853326E-02   7.162619921504752E-02   7.252714589091384E-02
   7.343942508088323E-02   7.436317933043518E-02   7.529855297805058E-02
   7.624569217776482E-02   7.720474492200498E-02   7.817586106471347E-02
   7.915919234476335E-02   8.015489240966772E-02   8.116311683958743E-02
   8.218402317164104E-02   8.321777092451992E-02   8.426452162341362E-02
   8.532443882524848E-02   8.639768814424363E-02   8.748443727778886E-02
   8.858485603264721E-02   8.969911635148795E-02   9.082739233975287E-02
   9.196986029286058E-02   9.312669872375326E-02   9.429808839078926E-02
   9.548421232598728E-02   9.668525586362538E-02   9.790140666919975E-02
   9.913285476874824E-02   1.003797925785417E-01   1.016424149351498E-01
   1.029209191258847E-01   1.042155049196271E-01   1.055263745980414E-01
   1.068537329871817E-01   1.081977874894969E-01   1.095587481162374E-01
   1.109368275202700E-01   1.123322410293054E-01   1.137452066795434E-01
   1.151759452497415E-01   1.166246802957122E-01   1.180916381852537E-01
   1.195770481335210E-01   1.210811422388407E-01   1.226041555189766E-01
   1.241463259478525E-01   1.257078944927352E-01   1.272891051518873E-01
   1.288902049926911E-01   1.305114441902541E-01   1.321530760664994E-01
   1.338153571297476E-01   1.354985471147968E-01   1.372029090235067E-01
   1.389287091658929E-01   1.406762172017390E-01   1.424457061827308E-01
   1.442374525951217E-01   1.460517364029340E-01   1.478888410917039E-01
   1.497490537127764E-01   1.516326649281584E-01   1.535399690559345E-01
   1.554712641162551E-01   1.574268518779026E-01   1.594070379054434E-01
   1.614121316069730E-01   1.634424462824619E-01   1.654982991727086E-01
   1.675800115089099E-01   1.696879085628537E-01   1.718223196977431E-01
   1.739835784196605E-01   1.761720224296784E-01   1.783879936766257E-01
   1.806318384105182E-01   1.829039072366604E-01   1.852045551704295E-01
   1.875341416927455E-01   1.898930308062422E-01   1.922815910921428E-01
   1.947001957678512E-01   1.971492227452692E-01   1.996290546898443E-01
   2.021400790803632E-01   2.046826882694956E-01   2.072572795451001E-01
   2.098642551923019E-01   2.125040225563496E-01   2.151769941062646E-01
   2.178835874992896E-01   2.206242256461489E-01   2.233993367771289E-01
   2.262093545089900E-01   2.290547179127195E-01   2.319358715821384E-01
   2.348532657033690E-01   2.378073561251785E-01   2.407986044302055E-01
   2.438274780070833E-01   2.468944501234705E-01   2.500000000000000E-01
   2.531446128851587E-01   2.563287801311073E-01   2.595529992704564E-01
   2.628177740940062E-01   2.661236147294648E-01   2.694710377211579E-01
   2.728605661107380E-01   2.762927295189120E-01   2.797680642281953E-01
   2.832871132667066E-01   2.868504264930181E-01   2.904585606820709E-01
   2.941120796121728E-01   2.978115541530897E-01   3.015575623552452E-01
   3.053506895400425E-01   3.091915283913213E-01   3.130806790479663E-01
   3.170187491976801E-01   3.210063541719353E-01   3.250441170421228E-01
   3.291326687169055E-01   3.332726480408009E-01   3.374647018940010E-01
   3.417094852934491E-01   3.460076614951879E-01   3.503599020979934E-01
   3.547668871483145E-01   3.592293052465313E-01   3.637478536545503E-01
   3.683232384047539E-01   3.729561744103177E-01   3.776473855769183E-01
   3.823976049158450E-01   3.872075746585333E-01   3.920780463725423E-01
   3.970097810789860E-01   4.020035493714459E-01   4.070601315363778E-01
   4.121803176750320E-01   4.173649078269108E-01   4.226147120947730E-01
   4.279305507712163E-01   4.333132544668491E-01   4.387636642400746E-01
   4.442826317285097E-01   4.498710192820523E-01   4.555297000976275E-01
   4.612595583556253E-01   4.670614893580556E-01   4.729363996684425E-01
   4.788852072534742E-01   4.849088416264388E-01   4.910082439924621E-01
   4.971843673955730E-01   5.034381768676193E-01   5.097706495790539E-01
   5.161827749916219E-01   5.226755550129643E-01   5.292500041531687E-01
   5.359071496832899E-01   5.426480317958607E-01   5.494737037674258E-01
   5.563852321231173E-01   5.633836968033021E-01   5.704701913323260E-01
   5.776458229893762E-01   5.849117129814980E-01   5.922689966187854E-01
   5.997188234917745E-01   6.072623576510722E-01   6.149007777892377E-01
   6.226352774249581E-01   6.304670650895374E-01   6.383973645157317E-01
   6.464274148289617E-01   6.545584707409254E-01   6.627918027456520E-01
   6.711286973180181E-01   6.795704571147613E-01   6.881184011780268E-01
   6.967738651414629E-01   7.055382014389249E-01   7.144127795157914E-01
   7.233989860429403E-01   7.324982251334262E-01   7.417119185618671E-01
   7.510415059866080E-01   7.604884451746664E-01   7.700542122295078E-01
   7.797403018216988E-01   7.895482274224422E-01   7.994795215400686E-01
   8.095357359594908E-01   8.197184419846684E-01   8.300292306841378E-01
   8.404697131396076E-01   8.510415206977044E-01   8.617463052248693E-01
   8.725857393654604E-01   8.835615168031183E-01   8.946753525253951E-01
   9.059289830917352E-01   9.173241669048117E-01   9.288626844852760E-01
   9.405463387499786E-01   9.523769552936656E-01   9.643563826742433E-01
   9.764864927016137E-01   9.887691807301443E-01   1.001206365954832E+00
   1.013799991711169E+00   1.026552025778803E+00   1.039464460689003E+00
   1.052539314035990E+00   1.065778628792206E+00   1.079184473627511E+00
   1.092758943232439E+00   1.106504158645484E+00   1.120422267584516E+00
   1.134515444782377E+00   1.148785892326672E+00   1.163235840003867E+00
   1.177867545647686E+00   1.192683295491901E+00   1.207685404527571E+00
   1.222876216864752E+00   1.238258106098778E+00   1.253833475681141E+00
   1.269604759295020E+00   1.285574421235573E+00   1.301744956794963E+00
   1.318118892652272E+00   1.334698787268295E+00   1.351487231285292E+00
   1.368486847931801E+00   1.385700293432506E+00   1.403130257423289E+00
   1.420779463371487E+00   1.438650669001433E+00   1.456746666725370E+00
   1.475070284079754E+00   1.493624384167080E+00   1.512411866103238E+00
   1.531435665470497E+00   1.550698754776218E+00   1.570204143917292E+00
   1.589954880650457E+00   1.609954051068516E+00   1.630204780082528E+00
   1.650710231910109E+00   1.671473610569818E+00   1.692498160381818E+00
   1.713787166474796E+00   1.735343955299259E+00   1.757171895147325E+00
   1.779274396678999E+00   1.801654913455116E+00   1.824316942476959E+00
   1.847264024732663E+00   1.870499745750521E+00   1.894027736159212E+00
   1.917851672255107E+00   1.941975276576694E+00   1.966402318486223E+00
   1.991136614758695E+00   2.016182030178219E+00   2.041542478141912E+00
   2.067221921271369E+00   2.093224372031816E+00   2.119553893359095E+00
   2.146214599294474E+00   2.173210655627500E+00   2.200546280546903E+00
   2.228225745299684E+00   2.256253374858533E+00   2.284633548597582E+00
   2.313370700976722E+00   2.342469322234484E+00   2.371933959089632E+00
   2.401769215451628E+00   2.431979753139972E+00   2.462570292612645E+00
   2.493545613703682E+00   2.524910556370013E+00   2.556670021447752E+00
   2.588828971417924E+00   2.621392431181893E+00   2.654365488846503E+00
   2.687753296519089E+00   2.721561071112537E+00   2.755794095160401E+00
   2.790457717642341E+00   2.825557354819897E+00   2.861098491082780E+00
   2.897086679805851E+00   2.933527544216803E+00   2.970426778274849E+00
   3.007790147560385E+00   3.045623490175868E+00   3.083932717658067E+00
   3.122723815901703E+00   3.162002846094806E+00   3.201775945665760E+00
   3.242049329242283E+00   3.282829289622507E+00   3.324122198758197E+00
   3.365934508750427E+00   3.408272752857691E+00   3.451143546516774E+00
   3.494553588376412E+00   3.538509661343952E+00   3.583018633645237E+00
   3.628087459897731E+00   3.673723182197235E+00   3.719932931218212E+00
   3.766723927327948E+00   3.814103481714795E+00   3.862078997530507E+00
   3.910657971047043E+00   3.959847992827858E+00   4.009656748913919E+00
   4.060092022024715E+00   4.111161692774266E+00   4.162873740902536E+00
   4.215236246522262E+00   4.268257391381465E+00   4.321945460141916E+00
   4.376308841673572E+00   4.431356030365411E+00   4.487095627452664E+00
   4.543536342360767E+00   4.600686994066268E+00   4.658556512474754E+00
   4.717153939816221E+00   4.776488432057917E+00   4.836569260334954E+00
   4.897405812399005E+00   4.959007594085083E+00   5.021384230796917E+00
   5.084545469010907E+00   5.148501177799009E+00   5.213261350370859E+00
   5.278836105635157E+00   5.345235689780836E+00   5.412470477878019E+00
   5.480550975499118E+00   5.549487820360416E+00   5.619291783984156E+00
   5.689973773381682E+00   5.761544832757650E+00   5.834016145235680E+00
   5.907399034605812E+00   5.981704967093788E+00   6.056945553152745E+00
   6.133132549277343E+00   6.210277859840712E+00   6.288393538954599E+00
   6.367491792352774E+00   6.447584979298266E+00   6.528685614514498E+00
   6.610806370140700E+00   6.693960077712039E+00   6.778159730164477E+00
   6.863418483865025E+00   6.949749660667423E+00   7.037166749993664E+00
   7.125683410941829E+00   7.215313474420259E+00   7.306070945308735E+00
   7.397970004646745E+00   7.491025011849256E+00   7.585250506950490E+00
   7.680661212875734E+00   7.777272037741915E+00   7.875098077186991E+00
   7.974154616728625E+00   8.074457134152681E+00   8.176021301931543E+00
   8.278862989673078E+00   8.382998266600241E+00   8.488443404061888E+00
   8.595214878075307E+00   8.703329371900512E+00   8.812803778647135E+00
   8.923655203913977E+00   9.035900968461734E+00   9.149558610919510E+00
   9.264645890525149E+00   9.381180789900251E+00   9.499181517859951E+00
   9.618666512258034E+00   9.739654442868005E+00   9.862164214300138E+00
   9.986214968955483E+00   1.011182609001686E+01   1.023901720447745E+01
   1.036780818620770E+01   1.049821915906050E+01   1.063027050001570E+01
   1.076398284236399E+01   1.089937707893088E+01   1.103647436534132E+01
   1.117529612332521E+01   1.131586404406469E+01   1.145820009158338E+01
   1.160232650617824E+01   1.174826580789484E+01   1.189604080004593E+01
   1.204567457277470E+01   1.219719050666261E+01   1.235061227638255E+01
   1.250596385439820E+01   1.266326951470967E+01   1.282255383664643E+01
   1.298384170870787E+01   1.314715833245211E+01   1.331252922643392E+01
   1.347998023019189E+01   1.364953750828606E+01   1.382122755438612E+01
   1.399507719541104E+01   1.417111359572097E+01   1.434936426136156E+01
   1.452985704436200E+01   1.471262014708686E+01   1.489768212664275E+01
   1.508507189934051E+01   1.527481874521334E+01   1.546695231259197E+01
   1.566150262273723E+01   1.585850007453084E+01   1.605797544922549E+01
   1.625995991525425E+01   1.646448503310092E+01   1.667158276023130E+01
   1.688128545608654E+01   1.709362588713956E+01   1.730863723201466E+01
   1.752635308667196E+01   1.774680746965673E+01   1.797003482741477E+01
   1.819607003967494E+01   1.842494842489896E+01   1.865670574580023E+01
   1.889137821493167E+01   1.912900250034397E+01   1.936961573131524E+01
   1.961325550415229E+01   1.985995988806533E+01   2.010976743111633E+01
   2.036271716624204E+01   2.061884861735328E+01   2.087820180551032E+01
   2.114081725517650E+01   2.140673600055016E+01   2.167599959197623E+01
   2.194865010243873E+01   2.222473013413458E+01   2.250428282513045E+01
   2.278735185610311E+01   2.307398145716447E+01   2.336421641477294E+01
   2.365810207873104E+01   2.395568436927172E+01   2.425700978423336E+01
   2.456212540632502E+01   2.487107891048349E+01   2.518391857132228E+01
   2.550069327067492E+01   2.582145250523271E+01   2.614624639427856E+01
   2.647512568751851E+01   2.680814177301114E+01   2.714534668519740E+01
   2.748679311303090E+01   2.783253440821059E+01   2.818262459351733E+01
   2.853711837125476E+01   2.889607113179692E+01   2.925953896224298E+01
   2.962757865518083E+01   3.000024771756139E+01   3.037760437968374E+01
   3.075970760429414E+01   3.114661709579886E+01   3.153839330959304E+01
   3.193509746150726E+01   3.233679153737224E+01   3.274353830270465E+01
   3.315540131251417E+01   3.357244492123388E+01   3.399473429277628E+01
   3.442233541071468E+01   3.485531508859379E+01   3.529374098036925E+01
   3.573768159097850E+01   3.618720628704529E+01   3.664238530771780E+01
   3.710328977564415E+01   3.756999170808525E+01   3.804256402816740E+01
   3.852108057627723E+01   3.900561612159878E+01   3.949624637379686E+01
   3.999304799484667E+01   4.049609861101209E+01   4.100547682497550E+01
   4.152126222811903E+01   4.204353541296136E+01   4.257237798575029E+01
   4.310787257921358E+01   4.365010286547111E+01   4.419915356910811E+01
   4.475511048041417E+01   4.531806046878784E+01   4.588809149631000E+01
   4.646529263148858E+01   4.704975406317512E+01   4.764156711465750E+01
   4.824082425792915E+01   4.884761912813774E+01   4.946204653821643E+01
   5.008420249369796E+01   5.071418420771622E+01   5.135209011619584E+01
   5.199801989323266E+01   5.265207446666869E+01   5.331435603386151E+01
   5.398496807765353E+01   5.466401538254105E+01   5.535160405104679E+01
   5.604784152029932E+01   5.675283657881953E+01   5.746669938351971E+01
   5.818954147691557E+01   5.892147580455465E+01   5.966261673266497E+01
   6.041308006602419E+01   6.117298306605510E+01   6.194244446914758E+01
   6.272158450521115E+01   6.351052491646182E+01   6.430938897644374E+01
   6.511830150929170E+01   6.593738890923481E+01   6.676677916034554E+01
   6.760660185653825E+01   6.845698822181764E+01   6.931807113078349E+01
   7.018998512939238E+01   7.107286645598023E+01   7.196685306255084E+01
   7.287208463633004E+01   7.378870262159307E+01   7.471685024176514E+01
   7.565667252179996E+01   7.660831631084115E+01   7.757193030516660E+01
   7.854766507142355E+01   7.953567307015452E+01   8.053610867961913E+01
   8.154912821991708E+01   8.257488997741223E+01   8.361355422946626E+01
   8.466528326948189E+01   8.573024143226110E+01   8.680859511968377E+01
   8.790051282670720E+01   8.900616516769477E+01   9.012572490307443E+01
   9.125936696633222E+01   9.240726849134731E+01   9.356960884006804E+01
   9.474656963053889E+01   9.593833476527806E+01   9.714509046001220E+01
   9.836702527277411E+01   9.960433013336399E+01   1.008571983731838E+02
    </PP_R>
    <PP_RAB>
   2.849631142357863E-06   2.885475089590695E-06   2.921769898176819E-06
   2.958521239253919E-06   2.995734855293812E-06   3.033416560999715E-06
   3.071572244214808E-06   3.110207866842223E-06   3.149329465776596E-06
   3.188943153847358E-06   3.229055120773866E-06   3.269671634132558E-06
   3.310799040336282E-06   3.352443765625928E-06   3.394612317074556E-06
   3.437311283604120E-06   3.480547337015010E-06   3.524327233028539E-06
   3.568657812342524E-06   3.613546001700181E-06   3.658998814972420E-06
   3.705023354253790E-06   3.751626810972190E-06   3.798816467012546E-06
   3.846599695854628E-06   3.894983963725155E-06   3.943976830764421E-06
   3.993585952207576E-06   4.043819079580775E-06   4.094684061912375E-06
   4.146188846959348E-06   4.198341482449146E-06   4.251150117337169E-06
   4.304623003080054E-06   4.358768494924996E-06   4.413595053215255E-06
   4.469111244712108E-06   4.525325743933424E-06   4.582247334509073E-06
   4.639884910553397E-06   4.698247478054914E-06   4.757344156283536E-06
   4.817184179215470E-06   4.877776896976039E-06   4.939131777300678E-06
   5.001258407014263E-06   5.064166493529084E-06   5.127865866361644E-06
   5.192366478668544E-06   5.257678408801691E-06   5.323811861883044E-06
   5.390777171399195E-06   5.458584800815999E-06   5.527245345213502E-06
   5.596769532941468E-06   5.667168227295673E-06   5.738452428215335E-06
   5.810633274001879E-06   5.883722043059305E-06   5.957730155656489E-06
   6.032669175711592E-06   6.108550812598960E-06   6.185386922978740E-06
   6.263189512649498E-06   6.341970738424169E-06   6.421742910029560E-06
   6.502518492029780E-06   6.584310105773857E-06   6.667130531367838E-06
   6.750992709671733E-06   6.835909744321517E-06   6.921894903776615E-06
   7.008961623393135E-06   7.097123507523147E-06   7.186394331640426E-06
   7.276788044492856E-06   7.368318770281978E-06   7.461000810869918E-06
   7.554848648014074E-06   7.649876945629948E-06   7.746100552082370E-06
   7.843534502505621E-06   7.942194021152683E-06   8.042094523774062E-06