<UPF version="2.0.1">
  <PP_INFO>
    Generated using "atomic" code by A. Dal Corso  v.7.2
    Author: ADC
    Generation date: 22Sep2023
    Pseudopotential type: USPP
    Element: Mg
    Functional: PBESOL
    Suggested minimum cutoff for wavefunctions:  97. Ry
    Suggested minimum cutoff for charge density: 398. Ry
    The Pseudo was generated with a Fully-Relativistic Calculation
    Local Potential by smoothing AE potential with Bessel fncs, cutoff radius:   1.0000
    Pseudopotential contains additional information for spin-orbit calculations.
    Valence configuration: 
    nl pn  l   occ       Rcut    Rcut US       E pseu
    2S  1  0  2.00      0.700      0.900    -5.849626
    3S  2  0  2.00      0.700      0.900    -0.343901
    2P  2  1  2.00      0.900      1.400    -3.435136
    2P  2  1  4.00      0.900      1.400    -3.413987
    3P  3  1  0.00      0.900      1.400    -0.096267
    3P  3  1  0.00      0.900      1.400    -0.095775
    Generation configuration:
    2S  1  0  2.00      0.700      0.900    -5.849624
    3S  2  0  2.00      0.700      0.900    -0.343909
    2P  2  1  2.00      0.900      1.400    -3.435140
    2P  2  1  4.00      0.900      1.400    -3.413990
    3P  3  1  0.00      0.900      1.400    -0.096272
    3P  3  1  0.00      0.900      1.400    -0.095776
    Pseudization used: troullier-martins
    <PP_INPUTFILE>
@input
title='Mg',
zed=12.,
rel=2,
config='[Ne] 3s2.0 3p0',
iswitch=3,
dft='PBESOL'
/
@inputp
lpaw=.false.,
pseudotype=3,
file_pseudopw='Mg.rel-pbesol-spn-rrkjus_psl.1.0.0.UPF',
author='ADC',
lloc=-1,
rcloc=1.0
which_augfun='PSQ',
rmatch_augfun_nc=.true.,
nlcc=.true.,
new_core_ps=.true.,
rcore=0.7,
tm=.true.
/
4
2S  1  0  2.00  0.00  0.70  0.90  0.0
3S  2  0  2.00  0.00  0.70  0.90  0.0
2P  2  1  6.00  0.00  0.90  1.40  0.0
3P  3  1  0.00  0.00  0.90  1.40  0.0
    </PP_INPUTFILE>
  </PP_INFO>
    <!-- END OF HUMAN READABLE SECTION -->
  <PP_HEADER generated="Generated using 'atomic' code by A. Dal Corso  v.7.2" author="ADC" date="22Sep2023" comment="" element="Mg" pseudo_type="USPP" relativistic="full" is_ultrasoft="true" is_paw="false" is_coulomb="false" has_so="true" has_wfc="false" has_gipaw="false" paw_as_gipaw="false" core_correction="true" functional="PBESOL" z_valence="10.000000000000000" total_psenergy="-126.13680698500559" wfc_cutoff="96.869151223918507" rho_cutoff="397.81917653136441" l_max="1" l_max_rho="2" l_local="-1" mesh_size="1129" number_of_wfc="6" number_of_proj="6"/>
  <PP_MESH mesh="1129" dx="1.2500000000000001E-002" xmin="-7.0000000000000000" rmax="100.00000000000000" zmesh="12.000000000000000">
    <PP_R>
   7.599016379620969E-05   7.694600238908519E-05   7.791386395138184E-05
   7.889389971343783E-05   7.988626280783498E-05   8.089110829332575E-05
   8.190859317906155E-05   8.293887644912595E-05   8.398211908737588E-05
   8.503848410259622E-05   8.610813655396975E-05   8.719124357686821E-05
   8.828797440896751E-05   8.939850041669140E-05   9.052299512198816E-05
   9.166163422944319E-05   9.281459565373361E-05   9.398205954742769E-05
   9.516420832913396E-05   9.636122671200481E-05   9.757330173259787E-05
   9.880062278010107E-05   1.000433816259251E-04   1.013017724536679E-04
   1.025759918894567E-04   1.038662390326708E-04   1.051727154870512E-04
   1.064956253922020E-04   1.078351754554873E-04   1.091915749843300E-04
   1.105650359189160E-04   1.119557728653106E-04   1.133640031289912E-04
   1.147899467488014E-04   1.162338265313332E-04   1.176958680857401E-04
   1.191762998589895E-04   1.206753531715580E-04   1.221932622535753E-04
   1.237302642814239E-04   1.252865994147977E-04   1.268625108342276E-04
   1.284582447790792E-04   1.300740505860277E-04   1.317101807280181E-04
   1.333668908537137E-04   1.350444398274422E-04   1.367430897696438E-04
   1.384631060978278E-04   1.402047575680451E-04   1.419683163168812E-04
   1.437540579039785E-04   1.455622613550933E-04   1.473932092056934E-04
   1.492471875451058E-04   1.511244860612179E-04   1.530253980857423E-04
   1.549502206400501E-04   1.568992544815815E-04   1.588728041508397E-04
   1.608711780189758E-04   1.628946883359722E-04   1.649436512794330E-04
   1.670183870039866E-04   1.691192196913112E-04   1.712464776007882E-04
   1.734004931207941E-04   1.755816028206362E-04   1.777901475031423E-04
   1.800264722579129E-04   1.822909265152404E-04   1.845838641007097E-04
   1.869056432904836E-04   1.892566268672839E-04   1.916371821770780E-04
   1.940476811864762E-04   1.964885005408528E-04   1.989600216231978E-04
   2.014626306137086E-04   2.039967185501319E-04   2.065626813888632E-04
   2.091609200668166E-04   2.117918405640715E-04   2.144558539673083E-04
   2.171533765340415E-04   2.198848297576601E-04   2.226506404332876E-04
   2.254512407244689E-04   2.282870682306974E-04   2.311585660557907E-04
   2.340661828771261E-04   2.370103730157473E-04   2.399915965073536E-04
   2.430103191741806E-04   2.460670126977872E-04   2.491621546927550E-04
   2.522962287813179E-04   2.554697246689286E-04   2.586831382207757E-04
   2.619369715392650E-04   2.652317330424723E-04   2.685679375435855E-04
   2.719461063313457E-04   2.753667672514985E-04   2.788304547892727E-04
   2.823377101528926E-04   2.858890813581446E-04   2.894851233140045E-04
   2.931263979093440E-04   2.968134741007275E-04   3.005469280013109E-04
   3.043273429708620E-04   3.081553097069110E-04   3.120314263370483E-04
   3.159562985123840E-04   3.199305395021803E-04   3.239547702896775E-04
   3.280296196691236E-04   3.321557243440242E-04   3.363337290266299E-04
   3.405642865386722E-04   3.448480579133697E-04   3.491857124987149E-04
   3.535779280620617E-04   3.580253908960283E-04   3.625287959257307E-04
   3.670888468173672E-04   3.717062560881668E-04   3.763817452177222E-04
   3.811160447607228E-04   3.859098944611038E-04   3.907640433676342E-04
   3.956792499509565E-04   4.006562822220988E-04   4.056959178524802E-04
   4.107989442954210E-04   4.159661589091847E-04   4.211983690815678E-04
   4.264963923560543E-04   4.318610565595604E-04   4.372931999317821E-04
   4.427936712561730E-04   4.483633299925684E-04   4.540030464114771E-04
   4.597137017300643E-04   4.654961882498416E-04   4.713514094960923E-04
   4.772802803590488E-04   4.832837272368451E-04   4.893626881802710E-04
   4.955181130393411E-04   5.017509636117132E-04   5.080622137929699E-04
   5.144528497287918E-04   5.209238699690467E-04   5.274762856238123E-04
   5.341111205213652E-04   5.408294113681573E-04   5.476322079108010E-04
   5.545205731000978E-04   5.614955832571223E-04   5.685583282414023E-04
   5.757099116212110E-04   5.829514508460009E-04   5.902840774210104E-04
   5.977089370840582E-04   6.052271899845743E-04   6.128400108648697E-04
   6.205485892436948E-04   6.283541296021063E-04   6.362578515716634E-04
   6.442609901250059E-04   6.523647957688145E-04   6.605705347392079E-04
   6.688794891995968E-04   6.772929574410175E-04   6.858122540850025E-04
   6.944387102889841E-04   7.031736739542943E-04   7.120185099367789E-04
   7.209746002600528E-04   7.300433443314523E-04   7.392261591606882E-04
   7.485244795812597E-04   7.579397584746520E-04   7.674734669973451E-04
   7.771270948106939E-04   7.869021503136843E-04   7.968001608786254E-04
   8.068226730898077E-04   8.169712529851524E-04   8.272474863009176E-04
   8.376529787194655E-04   8.481893561201557E-04   8.588582648333958E-04
   8.696613718978753E-04   8.806003653210546E-04   8.916769543429107E-04
   9.028928697030126E-04   9.142498639109573E-04   9.257497115201922E-04
   9.373942094053054E-04   9.491851770427814E-04   9.611244567953018E-04
   9.732139141996211E-04   9.854554382580515E-04   9.978509417336351E-04
   1.010402361449008E-03   1.023111658589036E-03   1.035980819007258E-03
   1.049011853536167E-03   1.062206798301422E-03   1.075567715039989E-03
   1.089096691422290E-03   1.102795841378412E-03   1.116667305428402E-03
   1.130713251016744E-03   1.144935872851012E-03   1.159337393244802E-03
   1.173920062464978E-03   1.188686159083271E-03   1.203637990332323E-03
   1.218777892466185E-03   1.234108231125367E-03   1.249631401706476E-03
   1.265349829736495E-03   1.281265971251786E-03   1.297382313181841E-03
   1.313701373737874E-03   1.330225702806302E-03   1.346957882347156E-03
   1.363900526797536E-03   1.381056283480104E-03   1.398427833016747E-03
   1.416017889747424E-03   1.433829202154282E-03   1.451864553291126E-03
   1.470126761218264E-03   1.488618679442836E-03   1.507343197364693E-03
   1.526303240727848E-03   1.545501772077657E-03   1.564941791223701E-03
   1.584626335708521E-03   1.604558481282244E-03   1.624741342383166E-03
   1.645178072624398E-03   1.665871865286619E-03   1.686825953817033E-03
   1.708043612334605E-03   1.729528156141645E-03   1.751282942241836E-03
   1.773311369864765E-03   1.795616880997064E-03   1.818202960920231E-03
   1.841073138755204E-03   1.864230988013800E-03   1.887680127157081E-03
   1.911424220160744E-03   1.935466977087631E-03   1.959812154667426E-03
   1.984463556883656E-03   2.009425035568073E-03   2.034700491002503E-03
   2.060293872528283E-03   2.086209179163346E-03   2.112450460227079E-03
   2.139021815973036E-03   2.165927398229612E-03   2.193171411048776E-03
   2.220758111362957E-03   2.248691809650207E-03   2.276976870607714E-03
   2.305617713833798E-03   2.334618814518485E-03   2.363984704142758E-03
   2.393719971186619E-03   2.423829261846040E-03   2.454317280758941E-03
   2.485188791740309E-03   2.516448618526542E-03   2.548101645529174E-03
   2.580152818598074E-03   2.612607145794241E-03   2.645469698172330E-03
   2.678745610573006E-03   2.712440082425286E-03   2.746558378558947E-03
   2.781105830027173E-03   2.816087834939546E-03   2.851509859305503E-03
   2.887377437888419E-03   2.923696175070420E-03   2.960471745728081E-03
   2.997709896119139E-03   3.035416444780353E-03   3.073597283436668E-03
   3.112258377921802E-03   3.151405769110424E-03   3.191045573862055E-03
   3.231183985976834E-03   3.271827277163318E-03   3.312981798018443E-03
   3.354653979019821E-03   3.396850331530519E-03   3.439577448816462E-03
   3.482842007076660E-03   3.526650766486360E-03   3.571010572253349E-03
   3.615928355687531E-03   3.661411135283952E-03   3.707466017819460E-03
   3.754100199463152E-03   3.801320966900784E-03   3.849135698473343E-03
   3.897551865329915E-03   3.946577032595077E-03   3.996218860550956E-03
   4.046485105834164E-03   4.097383622647798E-03   4.148922363988662E-03
   4.201109382889948E-03   4.253952833679534E-03   4.307460973254118E-03
   4.361642162369365E-03   4.416504866946317E-03   4.472057659394178E-03
   4.528309219949791E-03   4.585268338033938E-03   4.642943913624699E-03
   4.701344958648113E-03   4.760480598386275E-03   4.820360072903207E-03
   4.880992738488629E-03   4.942388069119894E-03   5.004555657942329E-03
   5.067505218768164E-03   5.131246587594353E-03   5.195789724139455E-03
   5.261144713399865E-03   5.327321767225631E-03   5.394331225916046E-03
   5.462183559835364E-03   5.530889371048803E-03   5.600459394979146E-03
   5.670904502084183E-03   5.742235699555215E-03   5.814464133036972E-03
   5.887601088369135E-03   5.961657993349768E-03   6.036646419520955E-03
   6.112578083976844E-03   6.189464851194492E-03   6.267318734887703E-03
   6.346151899884194E-03   6.425976664026393E-03   6.506805500096097E-03
   6.588651037763391E-03   6.671526065560048E-03   6.755443532877770E-03
   6.840416551991566E-03   6.926458400108547E-03   7.013582521442533E-03
   7.101802529314740E-03   7.191132208280875E-03   7.281585516285032E-03
   7.373176586840609E-03   7.465919731238726E-03   7.559829440784379E-03
   7.654920389060741E-03   7.751207434221957E-03   7.848705621314725E-03
   7.947430184629138E-03   8.047396550079073E-03   8.148620337612504E-03
   8.251117363652192E-03   8.354903643566980E-03   8.459995394174257E-03
   8.566409036273870E-03   8.674161197213887E-03   8.783268713488694E-03
   8.893748633369685E-03   9.005618219569109E-03   9.118894951937415E-03
   9.233596530194498E-03   9.349740876695311E-03   9.467346139230315E-03
   9.586430693861036E-03   9.707013147791418E-03   9.829112342275214E-03
   9.952747355559968E-03   1.007793750586806E-02   1.020470235441516E-02
   1.033306170846677E-02   1.046303562443311E-02   1.059464441100297E-02
   1.072790863231702E-02   1.086284911118097E-02   1.099948693231919E-02
   1.113784344566921E-02   1.127794026971773E-02   1.141979929487854E-02
   1.156344268691294E-02   1.170889289039318E-02   1.185617263220947E-02
   1.200530492512111E-02   1.215631307135229E-02   1.230922066623307E-02
   1.246405160188626E-02   1.262083007096056E-02   1.277958057041071E-02
   1.294032790532525E-02   1.310309719280230E-02   1.326791386587420E-02
   1.343480367748141E-02   1.360379270449653E-02   1.377490735179888E-02
   1.394817435640021E-02   1.412362079162252E-02   1.430127407132824E-02
   1.448116195420376E-02   1.466331254809679E-02   1.484775431440821E-02
   1.503451607253924E-02   1.522362700439456E-02   1.541511665894202E-02
   1.560901495682975E-02   1.580535219506128E-02   1.600415905172952E-02
   1.620546659081031E-02   1.640930626701617E-02   1.661570993071126E-02
   1.682470983288796E-02   1.703633863020617E-02   1.725062939009607E-02
   1.746761559592482E-02   1.768733115222859E-02   1.790981039001005E-02
   1.813508807210275E-02   1.836319939860283E-02   1.859418001236915E-02
   1.882806600459257E-02   1.906489392043521E-02   1.930470076474074E-02
   1.954752400781648E-02   1.979340159128818E-02   2.004237193402851E-02
   2.029447393816007E-02   2.054974699513388E-02   2.080823099188448E-02
   2.106996631706221E-02   2.133499386734418E-02   2.160335505382430E-02
   2.187509180848395E-02   2.215024659074390E-02   2.242886239409865E-02
   2.271098275283439E-02   2.299665174883110E-02   2.328591401845062E-02
   2.357881475951109E-02   2.387539973834918E-02   2.417571529697128E-02
   2.447980836029441E-02   2.478772644347839E-02   2.509951765935019E-02
   2.541523072592161E-02   2.573491497400166E-02   2.605862035490449E-02
   2.638639744825445E-02   2.671829746988924E-02   2.705437227986248E-02
   2.739467439054702E-02   2.773925697483997E-02   2.808817387447121E-02
   2.844147960841616E-02   2.879922938141454E-02   2.916147909259629E-02
   2.952828534421574E-02   2.989970545049598E-02   3.027579744658429E-02
   3.065662009762020E-02   3.104223290791775E-02   3.143269613026309E-02
   3.182807077532909E-02   3.222841862120846E-02   3.263380222306658E-02
   3.304428492291608E-02   3.345993085951390E-02   3.388080497838328E-02
   3.430697304196156E-02   3.473850163987570E-02   3.517545819934713E-02
   3.561791099572723E-02   3.606592916316562E-02   3.651958270541247E-02
   3.697894250675666E-02   3.744408034310181E-02   3.791506889318114E-02
   3.839198174991384E-02   3.887489343190405E-02   3.936387939508456E-02
   3.985901604450701E-02   4.036038074628022E-02   4.086805183965887E-02
   4.138210864928415E-02   4.190263149757841E-02   4.242970171729577E-02
   4.296340166423036E-02   4.350381473008470E-02   4.405102535549981E-02
   4.460511904324919E-02   4.516618237159894E-02   4.573430300783555E-02
   4.630956972196431E-02   4.689207240057968E-02   4.748190206091025E-02
   4.807915086504056E-02   4.868391213431134E-02   4.929628036390129E-02
   4.991635123759215E-02   5.054422164271945E-02   5.117998968531149E-02
   5.182375470541836E-02   5.247561729263420E-02   5.313567930181448E-02
   5.380404386899101E-02   5.448081542748728E-02   5.516609972423619E-02
   5.586000383630330E-02   5.656263618761790E-02   5.727410656591436E-02
   5.799452613988684E-02   5.872400747655947E-02   5.946266455887524E-02
   6.021061280350606E-02   6.096796907888682E-02   6.173485172347650E-02
   6.251138056424850E-02   6.329767693541408E-02   6.409386369738092E-02
   6.490006525595041E-02   6.571640758175640E-02   6.654301822994811E-02
   6.738002636012107E-02   6.822756275649854E-02   6.908575984836669E-02
   6.995475173076729E-02   7.083467418544988E-02   7.172566470208819E-02
   7.262786249976320E-02   7.354140854871628E-02   7.446644559237632E-02
   7.540311816966332E-02   7.635157263757318E-02   7.731195719404613E-02
   7.828442190112299E-02   7.926911870839284E-02   8.026620147673517E-02
   8.127582600236109E-02   8.229815004115684E-02   8.333333333333333E-02
   8.438153762838622E-02   8.544292671036911E-02   8.651766642348546E-02
   8.760592469800206E-02   8.870787157648828E-02   8.982367924038598E-02
   9.095352203691266E-02   9.209757650630401E-02   9.325602140939844E-02
   9.442903775556886E-02   9.561680883100604E-02   9.681952022735696E-02
   9.803735987072426E-02   9.927051805102992E-02   1.005191874517484E-01
   1.017835631800142E-01   1.030638427971071E-01   1.043602263493221E-01
   1.056729163992267E-01   1.070021180573118E-01   1.083480390140409E-01
   1.097108895723018E-01   1.110908826802670E-01   1.124882339646670E-01
   1.139031617644830E-01   1.153358871650626E-01   1.167866340326645E-01
   1.182556290494382E-01   1.197431017488438E-01   1.212492845515168E-01
   1.227744128015846E-01   1.243187248034392E-01   1.258824618589728E-01
   1.274658683052816E-01   1.290691915528444E-01   1.306926821241808E-01
   1.323365936929953E-01   1.340011831238153E-01   1.356867105121259E-01
   1.373934392250107E-01   1.391216359423036E-01   1.408715706982576E-01
   1.426435169237388E-01   1.444377514889497E-01   1.462545547466916E-01
   1.480942105761699E-01   1.499570064273508E-01   1.518432333658758E-01
   1.537531861185417E-01   1.556871631193519E-01   1.576454665561475E-01
   1.596284024178247E-01   1.616362805421463E-01   1.636694146641541E-01
   1.657281224651910E-01   1.678127256225398E-01   1.699235498596846E-01
   1.720609249972073E-01   1.742251850043214E-01   1.764166680510562E-01
   1.786357165610966E-01   1.808826772652869E-01   1.831579012558086E-01
   1.854617440410391E-01   1.877945656011007E-01   1.901567304441087E-01
   1.925486076631254E-01   1.949705709938327E-01   1.974229988729285E-01
   1.999062744972582E-01   2.024207858836907E-01   2.049669259297459E-01
   2.075450924749860E-01   2.101556883631791E-01   2.127991215052439E-01
   2.154758049429872E-01   2.181861569136418E-01   2.209306009152173E-01
   2.237095657726727E-01   2.265234857049204E-01   2.293728003926756E-01
   2.322579550471543E-01   2.351794004796416E-01   2.381375931719305E-01
   2.411329953476468E-01   2.441660750444754E-01   2.472373061872890E-01
   2.503471686622027E-01   2.534961483915555E-01   2.566847374098359E-01
   2.599134339405663E-01   2.631827424741474E-01   2.664931738466895E-01
   2.698452453198303E-01   2.732394806615561E-01   2.766764102280460E-01
   2.801565710465359E-01   2.836805068992348E-01   2.872487684082898E-01
   2.908619131218201E-01   2.945205056010394E-01   2.982251175084650E-01
   3.019763276972451E-01   3.057747223016039E-01   3.096208948284253E-01
   3.135154462499929E-01   3.174589850978886E-01   3.214521275580811E-01
   3.254954975672046E-01   3.295897269100481E-01   3.337354553182774E-01
   3.379333305703897E-01   3.421840085929342E-01   3.464881535630009E-01
   3.508464380119967E-01   3.552595429307352E-01   3.597281578758371E-01
   3.642529810774797E-01   3.688347195484948E-01   3.734740891948387E-01
   3.781718149274589E-01   3.829286307755575E-01   3.877452800012890E-01
   3.926225152158954E-01   3.975610984973002E-01   4.025618015091903E-01
   4.076254056215838E-01   4.127527020329261E-01   4.179444918937136E-01
   4.232015864316734E-01   4.285248070785243E-01   4.339149855983209E-01
   4.393729642174242E-01   4.448995957560983E-01   4.504957437617639E-01
   4.561622826439338E-01   4.619000978108354E-01   4.677100858077629E-01
   4.735931544571623E-01   4.795502230004776E-01   4.855822222417900E-01
   4.916900946932515E-01   4.978747947223601E-01   5.041372887010792E-01
   5.104785551568322E-01   5.168995849254060E-01   5.234013813057639E-01
   5.299849602168191E-01   5.366513503561720E-01   5.434015933608427E-01
   5.502367439700362E-01   5.571578701899393E-01   5.641660534606061E-01
   5.712623888249319E-01   5.784479850997529E-01   5.857239650491084E-01
   5.930914655596664E-01   6.005516378183721E-01   6.081056474923198E-01
   6.157546749108875E-01   6.234999152501738E-01   6.313425787197374E-01
   6.392838907517023E-01   6.473250921922314E-01   6.554674394954076E-01
   6.637122049195651E-01   6.720606767260729E-01   6.805141593806372E-01
   6.890739737571229E-01   6.977414573439388E-01   7.065179644530318E-01
   7.154048664314914E-01   7.244035518758335E-01   7.335154268489678E-01
   7.427419150998947E-01   7.520844582861775E-01   7.615445161991939E-01
   7.711235669922408E-01   7.808231074114946E-01   7.906446530298772E-01
   8.005897384838759E-01   8.106599177133239E-01   8.208567642042151E-01
   8.311818712345606E-01   8.416368521233378E-01   8.522233404825842E-01
   8.629429904726412E-01   8.737974770606308E-01   8.847884962821676E-01
   8.959177655063629E-01   9.071870237041790E-01   9.185980317201338E-01
   9.301525725474470E-01   9.418524516066324E-01   9.536994970275935E-01
   9.656955599352836E-01   9.778425147389345E-01   9.901422594249496E-01
   1.002596715853462E+00   1.015207830058623E+00   1.027977572552689E+00
   1.040907938633901E+00   1.054000948698268E+00   1.067258648555254E+00
   1.080683109747428E+00   1.094276429874169E+00   1.108040732919399E+00
   1.121978169583476E+00   1.136090917619230E+00   1.150381182172258E+00
   1.164851196125471E+00   1.179503220447984E+00   1.194339544548412E+00
   1.209362486632577E+00   1.224574394065745E+00   1.239977643739404E+00
   1.255574642442649E+00   1.271367827238265E+00   1.287359665843502E+00
   1.303552657015681E+00   1.319949330942619E+00   1.336552249637973E+00
   1.353364007341572E+00   1.370387230924755E+00   1.387624580300845E+00
   1.405078748840754E+00   1.422752463793822E+00   1.440648486713972E+00
   1.458769613891191E+00   1.477118676788470E+00   1.495698542484221E+00
   1.514512114120256E+00   1.533562331355423E+00   1.552852170824918E+00
   1.572384646605407E+00   1.592162810685972E+00   1.612189753444985E+00
   1.632468604133002E+00   1.653002531361694E+00   1.673794743598972E+00
   1.694848489670302E+00   1.716167059266336E+00   1.737753783456953E+00
   1.759612035211719E+00   1.781745229926945E+00   1.804156825959340E+00
   1.826850325166373E+00   1.849829273453472E+00   1.873097261328052E+00
   1.896657924460561E+00   1.920514944252550E+00   1.944672048411894E+00
   1.969133011535271E+00   1.993901655697929E+00   2.018981851050915E+00
   2.044377516425781E+00   2.070092619946904E+00   2.096131179651533E+00
   2.122497264117591E+00   2.149194993099422E+00   2.176228538171499E+00
   2.203602123380234E+00   2.231320025904013E+00   2.259386576721492E+00
   2.287806161288342E+00   2.316583220222474E+00   2.345722249997888E+00
   2.375227803647276E+00   2.405104491473419E+00   2.435356981769579E+00
   2.465990001548915E+00   2.497008337283086E+00   2.528416835650163E+00
   2.560220404291911E+00   2.592424012580639E+00   2.625032692395664E+00
   2.658051538909542E+00   2.691485711384227E+00   2.725340433977181E+00
   2.759620996557693E+00   2.794332755533414E+00   2.829481134687296E+00
   2.865071626025102E+00   2.901109790633504E+00   2.937601259549045E+00
   2.974551734637993E+00   3.011966989487245E+00   3.049852870306503E+00
   3.088215296841716E+00   3.127060263300084E+00   3.166393839286650E+00
   3.206222170752678E+00   3.246551480956002E+00   3.287388071433380E+00
   3.328738322985161E+00   3.370608696672286E+00   3.413005734825817E+00
   3.455936062069235E+00   3.499406386353501E+00   3.543423500005232E+00
   3.587994280787997E+00   3.633125692976959E+00   3.678824788447107E+00
   3.725098707775071E+00   3.771954681354897E+00   3.819400030527793E+00
   3.867442168726081E+00   3.916088602631612E+00   3.965346933348642E+00
   4.015224857591568E+00   4.065730168887538E+00   4.116870758794183E+00
   4.168654618132734E+00   4.221089838236556E+00   4.274184612215476E+00
   4.327947236235958E+00   4.382386110817371E+00   4.437509742144641E+00
   4.493326743397297E+00   4.549845836095353E+00   4.607075851462040E+00
   4.665025731803680E+00   4.723704531906989E+00   4.783121420453853E+00
   4.843285681453999E+00   4.904206715695621E+00   4.965894042214249E+00
   5.028357299780171E+00   5.091606248404448E+00   5.155650770863990E+00
   5.220500874245743E+00   5.286166691510279E+00   5.352658483075163E+00
   5.419986638418084E+00   5.488161677700308E+00   5.557194253410434E+00
   5.627095152028846E+00   5.697875295713185E+00   5.769545744004887E+00
   5.842117695557321E+00   5.915602489885578E+00   5.990011609138256E+00
   6.065356679891646E+00   6.141649474966321E+00   6.218901915266742E+00
   6.297126071643890E+00   6.376334166781324E+00   6.456538577105081E+00
   6.537751834717429E+00   6.619986629355111E+00   6.703255810372109E+00
   6.787572388747345E+00   6.872949539117760E+00   6.959400601836773E+00
   7.046939085058834E+00   7.135578666850055E+00   7.225333197325408E+00
   7.316216700812910E+00   7.408243378044861E+00   7.501427608376818E+00
   7.595783952034370E+00   7.691327152388157E+00   7.788072138257646E+00
   7.886034026243679E+00   7.985228123090573E+00   8.085669928077786E+00
   8.187375135441672E+00   8.290359636827828E+00   8.394639523774094E+00
   8.500231090224974E+00   8.607150835077571E+00   8.715415464759518E+00
   8.825041895839503E+00   8.936047257670380E+00   9.048448895065800E+00
   9.162264371010300E+00   9.277511469403530E+00   9.394208197839111E+00
   9.512372790418253E+00   9.632023710598972E+00   9.753179654080993E+00
   9.875859551726945E+00   1.000008257252046E+01   1.012586812656125E+01
   1.025323586809805E+01   1.038220569859962E+01   1.051279776986435E+01
   1.064503248716909E+01   1.077893051245741E+01   1.091451276756822E+01
   1.105180043750472E+01   1.119081497374463E+01   1.133157809759209E+01
   1.147411180357156E+01   1.161843836286460E+01   1.176458032678975E+01
   1.191256053032617E+01   1.206240209568176E+01   1.221412843590593E+01
   1.236776325854805E+01   1.252333056936175E+01   1.268085467605580E+01
   1.284036019209241E+01   1.300187204053293E+01   1.316541545793229E+01
   1.333101599828222E+01   1.349869953700403E+01   1.366849227499183E+01
   1.384042074270634E+01   1.401451180432045E+01   1.419079266191676E+01
   1.436929085973786E+01   1.455003428849037E+01   1.473305118970270E+01
   1.491837016013806E+01   1.510602015626261E+01   1.529603049877000E+01
   1.548843087716286E+01   1.568325135439171E+01   1.588052237155250E+01
   1.608027475264305E+01   1.628253970937925E+01   1.648734884607214E+01
   1.669473416456599E+01   1.690472806923874E+01   1.711736337206528E+01
   1.733267329774422E+01   1.755069148888956E+01   1.777145201128717E+01
   1.799498935921784E+01   1.822133846084702E+01   1.845053468368226E+01
   1.868261384009977E+01   1.891761219293984E+01   1.915556646117324E+01
   1.939651382563853E+01   1.964049193485155E+01   1.988753891088832E+01
   2.013769335534140E+01   2.039099435535170E+01   2.064748148971586E+01
   2.090719483507038E+01   2.117017497215394E+01   2.143646299214791E+01
   2.170610050309723E+01   2.197912963641160E+01   2.225559305344851E+01
   2.253553395217942E+01   2.281899607393921E+01   2.310602371026117E+01
   2.339666170979746E+01   2.369095548532674E+01   2.398895102085028E+01
   2.429069487877668E+01   2.459623420719769E+01   2.490561674725505E+01
   2.521889084059999E+01   2.553610543694705E+01   2.585731010172220E+01
   2.618255502380785E+01   2.651189102338484E+01   2.684536955987305E+01
   2.718304273997236E+01   2.752496332580408E+01   2.787118474315542E+01
   2.822176108982730E+01   2.857674714408703E+01   2.893619837322792E+01
   2.930017094223573E+01   2.966872172256492E+01   3.004190830102481E+01
   3.041978898877741E+01   3.080242283044910E+01   3.118986961335601E+01
   3.158218987684630E+01   3.197944492175935E+01   3.238169682000407E+01
   3.278900842425804E+01   3.320144337778800E+01   3.361906612439459E+01
   3.404194191848171E+01   3.447013683525240E+01   3.490371778103369E+01
   3.534275250373038E+01   3.578730960341116E+01   3.623745854302739E+01
   3.669326965926658E+01   3.715481417354313E+01   3.762216420312630E+01
   3.809539277240908E+01   3.857457382431830E+01   3.905978223186808E+01
   3.955109380985941E+01   4.004858532672578E+01   4.055233451652894E+01
   4.106242009110473E+01   4.157892175236184E+01   4.210192020473579E+01
   4.263149716779868E+01   4.316773538902850E+01   4.371071865673837E+01
   4.426053181316843E+01   4.481726076774311E+01   4.538099251049412E+01
   4.595181512565323E+01   4.652981780541550E+01   4.711509086387543E+01
   4.770772575113932E+01   4.830781506761387E+01   4.891545257847574E+01
   4.953073322832235E+01   5.015375315600685E+01   5.078460970966068E+01
   5.142340146190364E+01   5.207022822524674E+01   5.272519106768784E+01
   5.338839232850341E+01   5.405993563423991E+01   5.473992591490498E+01
   5.542846942036348E+01   5.612567373693912E+01   5.683164780422462E+01
   5.754650193210453E+01   5.827034781799048E+01   5.900329856427495E+01
   5.974546869600332E+01   6.049697417876845E+01   6.125793243683116E+01
   6.202846237146725E+01   6.280868437954678E+01   6.359872037234597E+01
   6.439869379459583E+01   6.520872964377138E+01   6.602895448962184E+01
   6.685949649394824E+01   6.770048543062866E+01   6.855205270589521E+01
   6.941433137886740E+01   7.028745618234196E+01   7.117156354384596E+01
   7.206679160695349E+01   7.297328025287050E+01   7.389117112229243E+01
   7.482060763753486E+01   7.576173502494436E+01   7.671470033759009E+01
   7.767965247824070E+01   7.865674222263165E+01   7.964612224302313E+01
   8.064794713205639E+01   8.166237342690869E+01   8.268955963375218E+01
   8.372966625252182E+01   8.478285580199260E+01   8.584929284517449E+01
   8.692914401502533E+01   8.802257804048709E+01   8.912976577285117E+01
   9.025088021245301E+01   9.138609653570488E+01   9.253559212246709E+01
   9.369954658376338E+01   9.487814178984677E+01   9.607156189861571E+01